LAMMPS Description

1128 atoms
1242 bonds
1710 angles
828 dihedrals
462 impropers

8 atom types
6 bond types
8 angle types
4 dihedral types
2 improper types

0.0 40.0 xlo xhi
0.0 40.0 ylo yhi
0.0 200.0 zlo zhi

Masses

1 14.0067  
2 1.008 
3 13.019 
4 14.027 
5 12.0122 
6 16.994 
7 14.0067 
8 15.9994 

Atoms

1 1 1 0.2 9.23 23.98 174.52
2 1 2 0.4 8.8 24.4 175.32
3 1 2 0.4 9.53 23.05 174.76
4 1 3 0.0 8.23 23.900000000000002 173.41000000000003
5 1 4 0.0 7.930000000000001 25.39 173.21
6 1 4 0.0 9.25 26.099999999999998 173.55
7 1 4 0.0 9.96 25.25 174.63
8 1 5 0.38 8.83 23.26 172.17
9 1 6 -0.38 10.04 22.970000000000002 172.13
10 2 7 0.0 8.08 23.0 171.1
11 2 3 0.0 8.65 22.44 169.86999999999998
12 2 4 0.0 7.47 22.34 168.88000000000002
13 2 4 0.0 6.28 22.259999999999998 169.86
14 2 4 0.0 6.630000000000001 23.21 170.96
15 2 5 0.38 9.75 23.32 169.28
16 2 6 -0.38 9.8 24.62 169.47
17 3 7 -0.28 10.649999999999999 22.669999999999998 168.56
18 3 2 0.28 10.600000000000001 21.669999999999998 168.47000000000003
19 3 4 0.0 11.719999999999999 23.39 167.91
20 3 5 0.38 11.16 24.16 166.69
21 3 6 -0.38 9.97 24.07 166.32999999999998
22 4 7 0.0 12.09 24.860000000000003 166.11
23 4 3 0.0 11.690000000000001 25.64 164.95000000000002
24 4 4 0.0 12.88 26.549999999999997 164.71
25 4 4 0.0 13.959999999999999 25.8 165.27
26 4 4 0.0 13.520000000000001 25.0 166.43
27 4 5 0.38 11.47 24.75 163.73000000000002
28 4 6 -0.38 11.91 23.599999999999998 163.73000000000002
29 5 7 0.0 10.82 25.240000000000002 162.74
30 5 3 0.0 10.64 24.42 161.52999999999997
31 5 4 0.0 9.82 25.43 160.68
32 5 4 0.0 9.13 26.31 161.70999999999998
33 5 4 0.0 10.22 26.58 162.62
34 5 5 0.38 11.91 24.1 160.88
35 5 6 -0.38 12.96 24.830000000000002 161.02
36 6 7 -0.28 11.99 23.0 160.17
37 6 2 0.28 11.200000000000001 22.39 160.15999999999997
38 6 4 0.0 13.149999999999999 22.639999999999997 159.4
39 6 5 0.38 13.33 23.580000000000002 158.19
40 6 6 -0.38 12.47 24.39 157.84
41 7 7 0.0 14.47 23.330000000000002 157.53
42 7 3 0.0 14.719999999999999 24.13 156.32
43 7 4 0.0 16.200000000000003 23.81 156.05
44 7 4 0.0 16.33 22.480000000000004 156.63
45 7 4 0.0 15.489999999999998 22.349999999999998 157.84
46 7 5 0.38 13.84 23.75 155.13
47 7 6 -0.38 13.280000000000001 22.650000000000002 155.12
48 8 7 0.0 13.740000000000002 24.61 154.10999999999999
49 8 3 0.0 13.06 24.2 152.95
50 8 4 0.0 13.17 25.45 152.02
51 8 4 0.0 13.600000000000001 26.5 152.92
52 8 4 0.0 14.31 25.97 154.07
53 8 5 0.38 13.72 22.94 152.31
54 8 6 -0.38 14.870000000000001 22.7 152.51
55 9 7 -0.28 12.889999999999999 22.229999999999997 151.54999999999998
56 9 2 0.28 11.94 22.519999999999996 151.44
57 9 4 0.0 13.360000000000001 21.05 150.91
58 9 5 0.38 14.190000000000001 21.400000000000002 149.69
59 9 6 -0.38 14.370000000000001 22.61 149.37
60 10 7 0.0 14.64 20.36 149.06
61 10 3 0.0 15.489999999999998 20.51 147.85
62 10 4 0.0 16.09 19.11 147.7
63 10 4 0.0 15.08 18.11 148.3
64 10 4 0.0 14.44 18.91 149.38
65 10 5 0.38 14.64 20.96 146.64999999999998
66 10 6 -0.38 13.45 20.77 146.63
67 11 7 0.0 15.34 21.48 145.64
68 11 3 0.0 14.690000000000001 21.840000000000003 144.41
69 11 4 0.0 15.77 22.31 143.42000000000002
70 11 4 0.0 16.990000000000002 22.44 144.26999999999998
71 11 4 0.0 16.78 21.74 145.57
72 11 5 0.38 14.02 20.619999999999997 143.81
73 11 6 -0.38 14.510000000000002 19.48 143.96
74 12 7 -0.28 12.92 20.89 143.03
75 12 2 0.28 12.549999999999999 21.82 143.01999999999998
76 12 4 0.0 12.270000000000001 19.86 142.21
77 12 5 0.38 13.120000000000001 19.439999999999998 141.01000000000002
78 12 6 -0.38 14.2 19.990000000000002 140.74
79 13 7 0.0 12.669999999999998 18.380000000000003 140.31
80 13 3 0.0 13.420000000000002 17.94 139.16
81 13 4 0.0 12.84 16.53 138.94
82 13 4 0.0 11.43 16.69 139.46
83 13 4 0.0 11.44 17.61 140.65
84 13 5 0.38 13.19 18.799999999999997 137.98
85 13 6 -0.38 12.28 19.61 137.94
86 14 7 0.0 14.059999999999999 18.62 136.98000000000002
87 14 3 0.0 13.86 19.36 135.74
88 14 4 0.0 15.03 18.88 134.85
89 14 4 0.0 16.09 18.41 135.82
90 14 4 0.0 15.280000000000001 17.740000000000002 136.87
91 14 5 0.38 12.490000000000002 19.04 135.13
92 14 6 -0.38 11.91 17.95 135.26
93 15 7 -0.28 11.959999999999999 20.019999999999996 134.43
94 15 2 0.28 12.42 20.910000000000004 134.41
95 15 4 0.0 10.75 19.86 133.68
96 15 5 0.38 10.91 18.97 132.47
97 15 6 -0.38 11.959999999999999 18.48 132.12
98 16 7 0.0 9.78 18.69 131.81
99 16 3 0.0 9.79 17.849999999999998 130.63
100 16 4 0.0 8.299999999999999 17.61 130.39
101 16 4 0.0 7.63 18.740000000000002 130.95000000000002
102 16 4 0.0 8.469999999999999 19.21 132.08
103 16 5 0.38 10.389999999999999 18.55 129.41
104 16 6 -0.38 10.51 19.78 129.35
105 17 7 0.0 10.79 17.740000000000002 128.4
106 17 3 0.0 11.25 18.41 127.19
107 17 4 0.0 11.51 17.24 126.22
108 17 4 0.0 11.6 16.04 127.09
109 17 4 0.0 10.760000000000002 16.34 128.31
110 17 5 0.38 10.209999999999999 19.35 126.55
111 17 6 -0.38 8.96 19.15 126.71
112 18 7 -0.28 10.629999999999999 20.36 125.87
113 18 2 0.28 11.61 20.560000000000002 125.9
114 18 4 0.0 9.8 21.22 125.09
115 18 5 0.38 9.17 20.590000000000003 123.91
116 18 6 -0.38 9.48 19.43 123.56
117 19 7 0.0 8.25 21.32 123.24
118 19 3 0.0 7.63 20.76 122.06
119 19 4 0.0 6.5200000000000005 21.79 121.8
120 19 4 0.0 7.0 23.05 122.43
121 19 4 0.0 7.890000000000001 22.669999999999998 123.62
122 19 5 0.38 8.55 20.7 120.86
123 19 6 -0.38 9.559999999999999 21.419999999999998 120.82000000000001
124 20 7 0.0 8.25 19.91 119.81
125 20 3 0.0 9.05 19.91 118.61000000000001
126 20 4 0.0 8.309999999999999 18.93 117.74
127 20 4 0.0 7.38 18.13 118.6
128 20 4 0.0 7.069999999999999 19.0 119.77000000000001
129 20 5 0.38 8.99 21.28 117.98
130 20 6 -0.38 8.100000000000001 22.080000000000002 118.14
131 21 7 -0.28 10.049999999999999 21.560000000000002 117.19
132 21 2 0.28 10.8 20.9 117.08
133 21 4 0.0 10.069999999999999 22.869999999999997 116.47999999999999
134 21 5 0.38 9.16 22.79 115.25999999999999
135 21 6 -0.38 8.59 21.78 114.96000000000001
136 22 7 0.0 9.0 23.93 114.59
137 22 3 0.0 8.149999999999999 23.900000000000002 113.47
138 22 4 0.0 7.890000000000001 25.369999999999997 113.25
139 22 4 0.0 9.200000000000001 26.04 113.56
140 22 4 0.0 9.61 25.22 114.86000000000001
141 22 5 0.38 8.86 23.27 112.24000000000001
142 22 6 -0.38 10.049999999999999 22.98 112.26
143 23 7 0.0 8.08 23.05 111.19999999999999
144 23 3 0.0 8.65 22.480000000000004 109.97
145 23 4 0.0 7.4399999999999995 22.360000000000003 109.00999999999999
146 23 4 0.0 6.24 22.480000000000004 109.82
147 23 4 0.0 6.640000000000001 23.31 111.02000000000001
148 23 5 0.38 9.67 23.42 109.39999999999999
149 23 6 -0.38 9.8 24.64 109.48
150 24 7 -0.28 10.600000000000001 22.73 108.71000000000001
151 24 2 0.28 10.540000000000001 21.74 108.64000000000001
152 24 4 0.0 11.7 23.47 108.05999999999999
153 24 5 0.38 11.180000000000001 24.16 106.80999999999999
154 24 6 -0.38 10.0 24.1 106.38999999999999
155 25 7 0.0 12.12 24.900000000000002 106.18
156 25 3 0.0 11.68 25.619999999999997 104.97
157 25 4 0.0 12.87 26.58 104.78999999999999
158 25 4 0.0 14.05 25.86 105.53
159 25 4 0.0 13.53 25.06 106.67999999999999
160 25 5 0.38 11.459999999999999 24.71 103.74000000000001
161 25 6 -0.38 11.92 23.610000000000003 103.72
162 26 7 0.0 10.760000000000002 25.16 102.75999999999999
163 26 3 0.0 10.600000000000001 24.369999999999997 101.53999999999999
164 26 4 0.0 9.87 25.369999999999997 100.64999999999999
165 26 4 0.0 9.24 26.38 101.55
166 26 4 0.0 10.06 26.490000000000002 102.72999999999999
167 26 5 0.38 11.94 24.020000000000003 100.9
168 26 6 -0.38 12.95 24.75 101.06
169 27 7 -0.28 12.030000000000001 22.919999999999998 100.19
170 27 2 0.28 11.21 22.34 100.13
171 27 4 0.0 13.25 22.480000000000004 99.48
172 27 5 0.38 13.469999999999999 23.37 98.27
173 27 6 -0.38 12.58 24.169999999999998 97.94
174 28 7 0.0 14.65 23.159999999999997 97.68
175 28 3 0.0 15.069999999999999 23.990000000000002 96.53999999999999
176 28 4 0.0 16.48 23.479999999999997 96.15
177 28 4 0.0 16.47 22.12 96.76
178 28 4 0.0 15.629999999999999 22.14 98.04
179 28 5 0.38 14.16 23.78 95.35
180 28 6 -0.38 13.520000000000001 22.7 95.38
181 29 7 0.0 14.05 24.67 94.36
182 29 3 0.0 13.18 24.28 93.21
183 29 4 0.0 13.09 25.55 92.36000000000001
184 29 4 0.0 14.11 26.45 92.88
185 29 4 0.0 14.64 25.96 94.23
186 29 5 0.27 13.77 23.1 92.43
187 29 8 -0.635 14.690000000000001 22.27 92.53999999999999
188 29 8 -0.635 13.07 22.650000000000002 91.35
189 1 1 0.2 14.059999999999999 23.4 177.51000000000002
190 1 2 0.4 14.59 23.72 178.29999999999998
191 1 2 0.4 13.09 23.5 177.69
192 1 3 0.0 14.43 24.18 176.32000000000002
193 1 4 0.0 15.88 23.799999999999997 176.01
194 1 4 0.0 16.16 22.639999999999997 176.93
195 1 4 0.0 15.34 22.98 178.17000000000002
196 1 5 0.38 13.69 23.759999999999998 175.10000000000002
197 1 6 -0.38 13.18 22.599999999999998 174.98000000000002
198 2 7 0.0 13.580000000000002 24.6 174.12
199 2 3 0.0 12.93 24.18 172.86
200 2 4 0.0 13.01 25.4 171.91
201 2 4 0.0 13.41 26.47 172.8
202 2 4 0.0 14.05 25.97 174.14000000000001
203 2 5 0.38 13.65 22.970000000000002 172.25
204 2 6 -0.38 14.830000000000002 22.7 172.45000000000002
205 3 7 -0.28 12.95 22.17 171.48
206 3 2 0.28 12.0 22.450000000000003 171.35000000000002
207 3 4 0.0 13.32 20.939999999999998 170.76
208 3 5 0.38 14.239999999999998 21.389999999999997 169.59
209 3 6 -0.38 14.450000000000001 22.58 169.35
210 4 7 0.0 14.670000000000002 20.33 168.98
211 4 3 0.0 15.51 20.52 167.79
212 4 4 0.0 16.11 19.11 167.60000000000002
213 4 4 0.0 15.129999999999999 18.16 168.24
214 4 4 0.0 14.399999999999999 18.919999999999998 169.36
215 4 5 0.38 14.65 20.950000000000003 166.64999999999998
216 4 6 -0.38 13.43 20.85 166.64000000000001
217 5 7 0.0 15.32 21.490000000000002 165.63
218 5 3 0.0 14.64 21.909999999999997 164.41
219 5 4 0.0 15.709999999999999 22.31 163.46
220 5 4 0.0 16.97 22.519999999999996 164.23
221 5 4 0.0 16.75 21.73 165.53
222 5 5 0.38 14.01 20.65 163.79000000000002
223 5 6 -0.38 14.52 19.54 163.93
224 6 7 -0.28 12.9 20.9 163.01
225 6 2 0.28 12.53 21.83 162.99
226 6 4 0.0 12.26 19.9 162.22000000000003
227 6 5 0.38 13.120000000000001 19.41 160.99
228 6 6 -0.38 14.18 20.04 160.75
229 7 7 0.0 12.629999999999999 18.37 160.31
230 7 3 0.0 13.4 17.92 159.14999999999998
231 7 4 0.0 12.829999999999998 16.54 158.96
232 7 4 0.0 11.459999999999999 16.7 159.44
233 7 4 0.0 11.44 17.62 160.6
234 7 5 0.38 13.18 18.83 157.97
235 7 6 -0.38 12.270000000000001 19.630000000000003 157.93
236 8 7 0.0 14.05 18.67 156.95
237 8 3 0.0 13.86 19.43 155.71
238 8 4 0.0 15.02 18.939999999999998 154.87
239 8 4 0.0 16.02 18.42 155.85000000000002
240 8 4 0.0 15.25 17.76 156.89
241 8 5 0.38 12.5 19.08 155.10999999999999
242 8 6 -0.38 11.94 17.96 155.26
243 9 7 -0.28 11.950000000000001 20.06 154.44
244 9 2 0.28 12.370000000000001 20.97 154.45
245 9 4 0.0 10.75 19.82 153.7
246 9 5 0.38 10.91 18.97 152.49
247 9 6 -0.38 11.959999999999999 18.509999999999998 152.12
248 10 7 0.0 9.76 18.720000000000002 151.81
249 10 3 0.0 9.78 17.9 150.63
250 10 4 0.0 8.29 17.64 150.29999999999998
251 10 4 0.0 7.57 18.720000000000002 150.99
252 10 4 0.0 8.43 19.23 152.14000000000001
253 10 5 0.38 10.41 18.57 149.4
254 10 6 -0.38 10.51 19.8 149.34
255 11 7 0.0 10.809999999999999 17.78 148.39000000000001
256 11 3 0.0 11.28 18.43 147.18
257 11 4 0.0 11.559999999999999 17.25 146.25
258 11 4 0.0 11.63 16.03 147.13
259 11 4 0.0 10.8 16.34 148.34
260 11 5 0.38 10.229999999999999 19.32 146.57
261 11 6 -0.38 8.98 19.15 146.69
262 12 7 -0.28 10.649999999999999 20.39 145.9
263 12 2 0.28 11.62 20.61 145.95000000000002
264 12 4 0.0 9.79 21.230000000000004 145.12
265 12 5 0.38 9.17 20.560000000000002 143.95
266 12 6 -0.38 9.459999999999999 19.38 143.59
267 13 7 0.0 8.28 21.28 143.27
268 13 3 0.0 7.66 20.76 142.09
269 13 4 0.0 6.53 21.810000000000002 141.82999999999998
270 13 4 0.0 7.029999999999999 22.99 142.44
271 13 4 0.0 7.8500000000000005 22.61 143.59
272 13 5 0.38 8.6 20.689999999999998 140.82
273 13 6 -0.38 9.57 21.400000000000002 140.84
274 14 7 0.0 8.23 19.9 139.82
275 14 3 0.0 9.05 19.89 138.64000000000001
276 14 4 0.0 8.379999999999999 18.89 137.71
277 14 4 0.0 7.42 18.169999999999998 138.61
278 14 4 0.0 7.069999999999999 19.0 139.8
279 14 5 0.38 9.02 21.28 137.95999999999998
280 14 6 -0.38 8.07 22.05 138.13
281 15 7 -0.28 10.120000000000001 21.549999999999997 137.24
282 15 2 0.28 10.91 20.93 137.21
283 15 4 0.0 10.049999999999999 22.82 136.5
284 15 5 0.38 9.15 22.75 135.25
285 15 6 -0.38 8.6 21.720000000000002 134.95
286 16 7 0.0 9.02 23.88 134.59
287 16 3 0.0 8.149999999999999 23.88 133.44
288 16 4 0.0 7.94 25.39 133.19
289 16 4 0.0 9.27 25.990000000000002 133.6
290 16 4 0.0 9.64 25.150000000000002 134.87
291 16 5 0.38 8.88 23.2 132.24
292 16 6 -0.38 10.08 22.93 132.25
293 17 7 0.0 8.09 23.04 131.2
294 17 3 0.0 8.66 22.46 129.98
295 17 4 0.0 7.48 22.34 129.01
296 17 4 0.0 6.2 22.44 129.83
297 17 4 0.0 6.640000000000001 23.24 131.03
298 17 5 0.38 9.79 23.279999999999998 129.34
299 17 6 -0.38 9.76 24.529999999999998 129.49
300 18 7 -0.28 10.68 22.66 128.63
301 18 2 0.28 10.649999999999999 21.66 128.51000000000002
302 18 4 0.0 11.71 23.450000000000003 128.01999999999998
303 18 5 0.38 11.22 24.119999999999997 126.78
304 18 6 -0.38 10.04 24.08 126.41999999999999
305 19 7 0.0 12.1 24.84 126.1
306 19 3 0.0 11.7 25.61 124.93
307 19 4 0.0 12.889999999999999 26.560000000000002 124.71000000000001
308 19 4 0.0 14.0 25.880000000000003 125.33
309 19 4 0.0 13.51 25.019999999999996 126.47999999999999
310 19 5 0.38 11.49 24.689999999999998 123.74000000000001
311 19 6 -0.38 11.93 23.57 123.74000000000001
312 20 7 0.0 10.809999999999999 25.19 122.72999999999999
313 20 3 0.0 10.61 24.45 121.46000000000001
314 20 4 0.0 9.85 25.44 120.58999999999999
315 20 4 0.0 9.14 26.259999999999998 121.6
316 20 4 0.0 10.129999999999999 26.5 122.66
317 20 5 0.38 11.950000000000001 24.11 120.82000000000001
318 20 6 -0.38 12.940000000000001 24.8 120.99000000000001
319 21 7 -0.28 11.97 22.95 120.15
320 21 2 0.28 11.19 22.34 120.16999999999999
321 21 4 0.0 13.17 22.61 119.39999999999999
322 21 5 0.38 13.33 23.54 118.17999999999999
323 21 6 -0.38 12.5 24.35 117.83
324 22 7 0.0 14.48 23.279999999999998 117.53
325 22 3 0.0 14.78 24.11 116.32999999999998
326 22 4 0.0 16.220000000000002 23.68 116.07
327 22 4 0.0 16.37 22.330000000000002 116.64
328 22 4 0.0 15.5 22.28 117.83
329 22 5 0.38 13.89 23.75 115.16999999999999
330 22 6 -0.38 13.260000000000002 22.650000000000002 115.13999999999999
331 23 7 0.0 13.77 24.57 114.12
332 23 3 0.0 13.040000000000001 24.209999999999997 112.89999999999999
333 23 4 0.0 13.200000000000001 25.470000000000002 112.01
334 23 4 0.0 13.72 26.549999999999997 112.88
335 23 4 0.0 14.36 25.92 114.05
336 23 5 0.38 13.67 23.01 112.24000000000001
337 23 6 -0.38 14.850000000000001 22.7 112.44999999999999
338 24 7 -0.28 12.86 22.330000000000002 111.52
339 24 2 0.28 11.91 22.62 111.41999999999999
340 24 4 0.0 13.3 21.150000000000002 110.86
341 24 5 0.38 14.21 21.47 109.66
342 24 6 -0.38 14.399999999999999 22.62 109.35000000000001
343 25 7 0.0 14.71 20.39 109.02
344 25 3 0.0 15.53 20.58 107.85
345 25 4 0.0 16.05 19.19 107.60999999999999
346 25 4 0.0 15.120000000000001 18.189999999999998 108.29
347 25 4 0.0 14.49 19.0 109.42999999999999
348 25 5 0.38 14.68 20.950000000000003 106.64
349 25 6 -0.38 13.45 20.779999999999998 106.64
350 26 7 0.0 15.36 21.45 105.61999999999999
351 26 3 0.0 14.690000000000001 21.840000000000003 104.38000000000001
352 26 4 0.0 15.75 22.29 103.42
353 26 4 0.0 16.98 22.47 104.21
354 26 4 0.0 16.79 21.77 105.54
355 26 5 0.38 14.05 20.61 103.75999999999999
356 26 6 -0.38 14.49 19.48 103.94
357 27 7 -0.28 13.01 20.880000000000003 103.05999999999999
358 27 2 0.28 12.69 21.83 103.0
359 27 4 0.0 12.290000000000001 19.810000000000002 102.33000000000001
360 27 5 0.38 13.120000000000001 19.34 101.16
361 27 6 -0.38 14.17 19.94 100.9
362 28 7 0.0 12.629999999999999 18.28 100.48
363 28 3 0.0 13.37 17.76 99.32000000000001
364 28 4 0.0 12.709999999999999 16.439999999999998 99.00999999999999
365 28 4 0.0 11.35 16.63 99.57000000000001
366 28 4 0.0 11.379999999999999 17.56 100.78
367 28 5 0.38 13.18 18.66 98.14
368 28 6 -0.38 12.23 19.45 98.11999999999999
369 29 7 0.0 14.030000000000001 18.6 97.17
370 29 3 0.0 13.84 19.419999999999998 95.95
371 29 4 0.0 15.02 18.84 95.03
372 29 4 0.0 15.969999999999999 18.22 96.02000000000001
373 29 4 0.0 15.24 17.77 97.23
374 29 5 0.27 12.629999999999999 19.39 94.94999999999999
375 29 8 -0.635 11.83 18.49 95.03999999999999
376 29 8 -0.635 12.68 20.240000000000002 93.88999999999999
377 1 1 0.2 12.79 18.720000000000002 180.12
378 1 2 0.4 13.02 18.240000000000002 180.97000000000003
379 1 2 0.4 12.92 19.7 180.25
380 1 3 0.0 13.67 18.23 179.02
381 1 4 0.0 13.39 16.69 178.82999999999998
382 1 4 0.0 11.899999999999999 16.78 179.08
383 1 4 0.0 11.84 17.58 180.41
384 1 5 0.38 13.33 18.939999999999998 177.74
385 1 6 -0.38 12.26 19.46 177.74
386 2 7 0.0 14.26 18.86 176.81
387 2 3 0.0 13.97 19.5 175.53
388 2 4 0.0 15.049999999999999 18.87 174.62
389 2 4 0.0 16.12 18.28 175.5
390 2 4 0.0 15.600000000000001 18.169999999999998 176.9
391 2 5 0.38 12.569999999999999 19.2 174.98999999999998
392 2 6 -0.38 11.959999999999999 18.12 175.21
393 3 7 -0.28 12.05 20.23 174.24
394 3 2 0.28 12.52 21.110000000000003 174.17000000000002
395 3 4 0.0 10.780000000000001 19.990000000000002 173.54
396 3 5 0.38 10.96 19.02 172.33
397 3 6 -0.38 12.13 18.580000000000002 172.0
398 4 7 0.0 9.81 18.75 171.75
399 4 3 0.0 9.879999999999999 17.91 170.51
400 4 4 0.0 8.41 17.63 170.17
401 4 4 0.0 7.62 18.45 171.06
402 4 4 0.0 8.45 19.119999999999997 172.10000000000002
403 4 5 0.38 10.51 18.65 169.37
404 4 6 -0.38 10.629999999999999 19.87 169.36
405 5 7 0.0 10.87 17.82 168.4
406 5 3 0.0 11.259999999999998 18.48 167.15
407 5 4 0.0 11.559999999999999 17.28 166.20000000000002
408 5 4 0.0 11.7 16.080000000000002 167.07999999999998
409 5 4 0.0 10.93 16.41 168.32
410 5 5 0.38 10.18 19.39 166.57
411 5 6 -0.38 8.96 19.25 166.70000000000002
412 6 7 -0.28 10.64 20.459999999999997 165.85000000000002
413 6 2 0.28 11.62 20.619999999999997 165.85000000000002
414 6 4 0.0 9.83 21.349999999999998 165.10999999999999
415 6 5 0.38 9.18 20.590000000000003 163.90999999999997
416 6 6 -0.38 9.48 19.43 163.59000000000003
417 7 7 0.0 8.27 21.34 163.26
418 7 3 0.0 7.62 20.779999999999998 162.03
419 7 4 0.0 6.5200000000000005 21.82 161.87
420 7 4 0.0 6.97 23.060000000000002 162.47
421 7 4 0.0 7.84 22.66 163.66
422 7 5 0.38 8.57 20.74 160.88
423 7 6 -0.38 9.549999999999999 21.41 160.85999999999999
424 8 7 0.0 8.219999999999999 19.96 159.86
425 8 3 0.0 9.040000000000001 19.9 158.64000000000001
426 8 4 0.0 8.28 18.9 157.78
427 8 4 0.0 7.279999999999999 18.29 158.59
428 8 4 0.0 7.029999999999999 19.14 159.79
429 8 5 0.38 9.05 21.259999999999998 158.0
430 8 6 -0.38 8.06 22.07 158.16
431 9 7 -0.28 10.11 21.58 157.25
432 9 2 0.28 10.920000000000002 20.990000000000002 157.23000000000002
433 9 4 0.0 10.06 22.810000000000002 156.48999999999998
434 9 5 0.38 9.14 22.72 155.29
435 9 6 -0.38 8.6 21.68 154.99
436 10 7 0.0 9.040000000000001 23.849999999999998 154.59
437 10 3 0.0 8.16 23.88 153.41
438 10 4 0.0 7.99 25.369999999999997 153.21
439 10 4 0.0 9.24 26.009999999999998 153.6
440 10 4 0.0 9.68 25.09 154.82
441 10 5 0.38 8.86 23.22 152.26000000000002
442 10 6 -0.38 10.049999999999999 22.95 152.26000000000002
443 11 7 0.0 8.07 23.01 151.19
444 11 3 0.0 8.67 22.44 149.97
445 11 4 0.0 7.5 22.330000000000002 149.03
446 11 4 0.0 6.23 22.42 149.85
447 11 4 0.0 6.640000000000001 23.27 151.06
448 11 5 0.38 9.74 23.3 149.35
449 11 6 -0.38 9.74 24.529999999999998 149.53
450 12 7 -0.28 10.649999999999999 22.650000000000002 148.62
451 12 2 0.28 10.58 21.66 148.48000000000002
452 12 4 0.0 11.73 23.410000000000004 148.01999999999998
453 12 5 0.38 11.200000000000001 24.13 146.76999999999998
454 12 6 -0.38 10.03 24.04 146.4
455 13 7 0.0 12.1 24.84 146.14000000000001
456 13 3 0.0 11.66 25.57 144.97
457 13 4 0.0 12.85 26.5 144.74
458 13 4 0.0 14.04 25.8 145.35999999999999
459 13 4 0.0 13.469999999999999 24.990000000000002 146.51
460 13 5 0.38 11.5 24.65 143.77
461 13 6 -0.38 11.93 23.55 143.77
462 14 7 0.0 10.82 25.18 142.78
463 14 3 0.0 10.64 24.43 141.48999999999998
464 14 4 0.0 9.79 25.419999999999998 140.61
465 14 4 0.0 9.14 26.259999999999998 141.64
466 14 4 0.0 10.149999999999999 26.5 142.69
467 14 5 0.38 11.93 24.07 140.86
468 14 6 -0.38 12.940000000000001 24.81 140.98000000000002
469 15 7 -0.28 11.959999999999999 22.93 140.17
470 15 2 0.28 11.180000000000001 22.3 140.18
471 15 4 0.0 13.16 22.62 139.39
472 15 5 0.38 13.35 23.53 138.17000000000002
473 15 6 -0.38 12.509999999999998 24.36 137.82999999999998
474 16 7 0.0 14.49 23.290000000000003 137.52
475 16 3 0.0 14.76 24.089999999999996 136.32999999999998
476 16 4 0.0 16.259999999999998 23.71 136.08
477 16 4 0.0 16.35 22.360000000000003 136.63
478 16 4 0.0 15.53 22.259999999999998 137.85999999999999
479 16 5 0.38 13.86 23.700000000000003 135.15
480 16 6 -0.38 13.29 22.62 135.15
481 17 7 0.0 13.759999999999998 24.55 134.12
482 17 3 0.0 13.03 24.209999999999997 132.89999999999998
483 17 4 0.0 13.18 25.419999999999998 132.0
484 17 4 0.0 13.64 26.509999999999998 132.85999999999999
485 17 4 0.0 14.350000000000001 25.910000000000004 134.04
486 17 5 0.38 13.71 22.95 132.3
487 17 6 -0.38 14.850000000000001 22.639999999999997 132.47
488 18 7 -0.28 12.86 22.25 131.56
489 18 2 0.28 11.91 22.54 131.48
490 18 4 0.0 13.32 21.05 130.84
491 18 5 0.38 14.21 21.37 129.67000000000002
492 18 6 -0.38 14.379999999999999 22.58 129.42000000000002
493 19 7 0.0 14.66 20.299999999999997 129.04999999999998
494 19 3 0.0 15.51 20.51 127.87
495 19 4 0.0 16.05 19.09 127.72999999999999
496 19 4 0.0 15.02 18.14 128.24
497 19 4 0.0 14.42 18.919999999999998 129.38
498 19 5 0.38 14.690000000000001 20.939999999999998 126.66
499 19 6 -0.38 13.46 20.76 126.64999999999999
500 20 7 0.0 15.329999999999998 21.47 125.61999999999999
501 20 3 0.0 14.68 21.82 124.33
502 20 4 0.0 15.780000000000001 22.330000000000002 123.39
503 20 4 0.0 17.03 22.39 124.17
504 20 4 0.0 16.77 21.77 125.47
505 20 5 0.38 14.05 20.560000000000002 123.75999999999999
506 20 6 -0.38 14.49 19.46 123.93
507 21 7 -0.28 12.95 20.880000000000003 123.01
508 21 2 0.28 12.6 21.82 123.0
509 21 4 0.0 12.290000000000001 19.84 122.21000000000001
510 21 5 0.38 13.14 19.439999999999998 120.99000000000001
511 21 6 -0.38 14.17 20.009999999999998 120.7
512 22 7 0.0 12.64 18.42 120.32
513 22 3 0.0 13.37 17.94 119.13
514 22 4 0.0 12.76 16.54 118.91
515 22 4 0.0 11.44 16.65 119.39999999999999
516 22 4 0.0 11.459999999999999 17.6 120.60000000000001
517 22 5 0.38 13.18 18.799999999999997 117.96
518 22 6 -0.38 12.26 19.62 117.94
519 23 7 0.0 14.04 18.67 116.94000000000001
520 23 3 0.0 13.86 19.4 115.71
521 23 4 0.0 14.96 18.88 114.81
522 23 4 0.0 16.02 18.44 115.84
523 23 4 0.0 15.24 17.75 116.89
524 23 5 0.38 12.46 19.07 115.1
525 23 6 -0.38 11.91 18.0 115.22
526 24 7 -0.28 11.959999999999999 20.06 114.42999999999999
527 24 2 0.28 12.430000000000001 20.950000000000003 114.42999999999999
528 24 4 0.0 10.72 19.88 113.69999999999999
529 24 5 0.38 10.83 18.98 112.49000000000001
530 24 6 -0.38 11.92 18.52 112.12
531 25 7 0.0 9.74 18.73 111.80999999999999
532 25 3 0.0 9.8 17.849999999999998 110.61999999999999
533 25 4 0.0 8.299999999999999 17.57 110.39
534 25 4 0.0 7.62 18.759999999999998 110.91
535 25 4 0.0 8.459999999999999 19.27 112.11
536 25 5 0.38 10.38 18.54 109.44000000000001
537 25 6 -0.38 10.489999999999998 19.82 109.36999999999999
538 26 7 0.0 10.77 17.81 108.41
539 26 3 0.0 11.28 18.49 107.21000000000001
540 26 4 0.0 11.57 17.32 106.28
541 26 4 0.0 11.54 16.05 107.06
542 26 4 0.0 10.73 16.36 108.29
543 26 5 0.38 10.2 19.330000000000002 106.6
544 26 6 -0.38 8.96 19.16 106.7
545 27 7 -0.28 10.61 20.32 105.94
546 27 2 0.28 11.59 20.53 105.98
547 27 4 0.0 9.8 21.18 105.12
548 27 5 0.38 9.120000000000001 20.55 103.96000000000001
549 27 6 -0.38 9.389999999999999 19.38 103.68
550 28 7 0.0 8.23 21.32 103.28
551 28 3 0.0 7.57 20.790000000000003 102.07000000000001
552 28 4 0.0 6.46 21.810000000000002 101.86
553 28 4 0.0 6.949999999999999 23.060000000000002 102.59
554 28 4 0.0 7.880000000000001 22.650000000000002 103.69
555 28 5 0.38 8.59 20.689999999999998 100.88
556 28 6 -0.38 9.6 21.400000000000002 100.89
557 29 7 0.0 8.29 19.810000000000002 99.97
558 29 3 0.0 9.07 19.79 98.72
559 29 4 0.0 8.28 18.9 97.78999999999999
560 29 4 0.0 7.47 18.009999999999998 98.75
561 29 4 0.0 7.21 18.82 100.09
562 29 5 0.27 9.24 21.22 98.0
563 29 8 -0.635 8.139999999999999 21.92 98.17
564 29 8 -0.635 9.95 21.25 96.85000000000001
565 1 1 0.2 12.290000000000001 25.08 84.78
566 1 2 0.4 12.490000000000002 25.74 85.51
567 1 2 0.4 11.559999999999999 24.46 85.07999999999998
568 1 3 0.0 11.84 25.82 83.53999999999999
569 1 4 0.0 13.02 26.79 83.19000000000001
570 1 4 0.0 14.190000000000001 25.96 83.65
571 1 4 0.0 13.79 25.19 84.97
572 1 5 0.38 11.52 24.849999999999998 82.4
573 1 6 -0.38 11.97 23.72 82.35
574 2 7 0.0 10.75 25.339999999999996 81.44
575 2 3 0.0 10.53 24.55 80.19999999999999
576 2 4 0.0 9.68 25.369999999999997 79.27
577 2 4 0.0 9.09 26.44 80.22999999999999
578 2 4 0.0 10.02 26.64 81.37
579 2 5 0.38 11.94 24.29 79.62
580 2 6 -0.38 13.02 24.91 79.73
581 3 7 -0.28 11.98 23.14 78.88
582 3 2 0.28 11.180000000000001 22.54 78.92
583 3 4 0.0 13.100000000000001 22.72 78.06
584 3 5 0.38 13.25 23.68 76.87
585 3 6 -0.38 12.41 24.540000000000003 76.58
586 4 7 0.0 14.41 23.42 76.27
587 4 3 0.0 14.690000000000001 24.209999999999997 75.09
588 4 4 0.0 16.14 23.84 74.84
589 4 4 0.0 16.36 22.53 75.45
590 4 4 0.0 15.43 22.480000000000004 76.64
591 4 5 0.38 13.84 23.799999999999997 73.89999999999999
592 4 6 -0.38 13.24 22.75 73.86999999999999
593 5 7 0.0 13.740000000000002 24.700000000000003 72.83
594 5 3 0.0 13.02 24.310000000000002 71.66
595 5 4 0.0 13.09 25.53 70.75999999999999
596 5 4 0.0 13.64 26.549999999999997 71.64
597 5 4 0.0 14.31 26.080000000000002 72.82
598 5 5 0.38 13.71 23.08 71.06
599 5 6 -0.38 14.84 22.770000000000003 71.19
600 6 7 -0.28 12.889999999999999 22.360000000000003 70.28999999999999
601 6 2 0.28 11.94 22.63 70.16
602 6 4 0.0 13.39 21.19 69.65
603 6 5 0.38 14.219999999999999 21.520000000000003 68.41
604 6 6 -0.38 14.370000000000001 22.66 68.11
605 7 7 0.0 14.690000000000001 20.459999999999997 67.77
606 7 3 0.0 15.489999999999998 20.64 66.58
607 7 4 0.0 16.04 19.21 66.38
608 7 4 0.0 15.069999999999999 18.28 67.00999999999999
609 7 4 0.0 14.52 19.03 68.13
610 7 5 0.38 14.68 21.110000000000003 65.4
611 7 6 -0.38 13.48 20.950000000000003 65.36
612 8 7 0.0 15.36 21.619999999999997 64.39
613 8 3 0.0 14.68 21.99 63.16
614 8 4 0.0 15.82 22.44 62.220000000000006
615 8 4 0.0 17.02 22.38 63.06
616 8 4 0.0 16.79 21.83 64.37
617 8 5 0.38 14.01 20.779999999999998 62.53999999999999
618 8 6 -0.38 14.459999999999999 19.61 62.68
619 9 7 -0.28 12.93 21.0 61.769999999999996
620 9 2 0.28 12.54 21.92 61.730000000000004
621 9 4 0.0 12.3 19.91 61.01
622 9 5 0.38 13.16 19.62 59.83
623 9 6 -0.38 14.17 20.2 59.489999999999995
624 10 7 0.0 12.68 18.57 59.11
625 10 3 0.0 13.4 18.04 57.97
626 10 4 0.0 12.79 16.66 57.64
627 10 4 0.0 11.43 16.79 58.2
628 10 4 0.0 11.45 17.8 59.34
629 10 5 0.38 13.19 18.93 56.730000000000004
630 10 6 -0.38 12.270000000000001 19.78 56.68
631 11 7 0.0 14.04 18.759999999999998 55.730000000000004
632 11 3 0.0 13.89 19.51 54.489999999999995
633 11 4 0.0 15.03 18.990000000000002 53.61
634 11 4 0.0 16.03 18.45 54.62
635 11 4 0.0 15.229999999999999 17.88 55.709999999999994
636 11 5 0.38 12.52 19.24 53.87
637 11 6 -0.38 11.97 18.12 54.029999999999994
638 12 7 -0.28 11.99 20.22 53.16
639 12 2 0.28 12.42 21.12 53.129999999999995
640 12 4 0.0 10.79 19.970000000000002 52.43000000000001
641 12 5 0.38 10.9 19.07 51.230000000000004
642 12 6 -0.38 11.99 18.63 50.88
643 13 7 0.0 9.77 18.83 50.57000000000001
644 13 3 0.0 9.85 17.96 49.379999999999995
645 13 4 0.0 8.39 17.66 49.14
646 13 4 0.0 7.65 18.9 49.65
647 13 4 0.0 8.45 19.330000000000002 50.85
648 13 5 0.38 10.41 18.68 48.17999999999999
649 13 6 -0.38 10.51 19.92 48.099999999999994
650 14 7 0.0 10.79 17.96 47.190000000000005
651 14 3 0.0 11.240000000000002 18.57 45.93
652 14 4 0.0 11.579999999999998 17.43 44.97
653 14 4 0.0 11.68 16.23 45.85
654 14 4 0.0 10.84 16.53 47.11
655 14 5 0.38 10.18 19.52 45.300000000000004
656 14 6 -0.38 8.98 19.32 45.480000000000004
657 15 7 -0.28 10.66 20.560000000000002 44.589999999999996
658 15 2 0.28 11.639999999999999 20.75 44.56
659 15 4 0.0 9.74 21.36 43.89
660 15 5 0.38 9.13 20.7 42.67
661 15 6 -0.38 9.5 19.57 42.32
662 16 7 0.0 8.26 21.41 42.0
663 16 3 0.0 7.62 20.84 40.79
664 16 4 0.0 6.46 21.85 40.599999999999994
665 16 4 0.0 6.9799999999999995 23.119999999999997 41.1
666 16 4 0.0 7.87 22.759999999999998 42.31
667 16 5 0.38 8.61 20.81 39.63
668 16 6 -0.38 9.61 21.54 39.6
669 17 7 0.0 8.27 20.009999999999998 38.61
670 17 3 0.0 9.05 20.06 37.36
671 17 4 0.0 8.37 18.98 36.480000000000004
672 17 4 0.0 7.51 18.15 37.410000000000004
673 17 4 0.0 7.109999999999999 19.07 38.56
674 17 5 0.38 9.05 21.44 36.7
675 17 6 -0.38 8.08 22.17 36.91
676 18 7 -0.28 10.11 21.69 35.96
677 18 2 0.28 10.87 21.05 35.94
678 18 4 0.0 10.16 22.919999999999998 35.17
679 18 5 0.38 9.18 22.89 33.99
680 18 6 -0.38 8.6 21.9 33.7
681 19 7 0.0 9.05 24.020000000000003 33.35
682 19 3 0.0 8.16 24.04 32.18
683 19 4 0.0 7.99 25.55 31.92
684 19 4 0.0 9.33 26.06 32.3
685 19 4 0.0 9.719999999999999 25.299999999999997 33.59
686 19 5 0.38 8.81 23.39 30.979999999999997
687 19 6 -0.38 9.99 23.1 30.979999999999997
688 20 7 0.0 8.030000000000001 23.15 29.93
689 20 3 0.0 8.629999999999999 22.53 28.730000000000004
690 20 4 0.0 7.45 22.44 27.73
691 20 4 0.0 6.24 22.56 28.599999999999998
692 20 4 0.0 6.6000000000000005 23.42 29.759999999999998
693 20 5 0.38 9.709999999999999 23.439999999999998 28.11
694 20 6 -0.38 9.76 24.689999999999998 28.23
695 21 7 -0.28 10.64 22.799999999999997 27.400000000000002
696 21 2 0.28 10.58 21.8 27.31
697 21 4 0.0 11.719999999999999 23.509999999999998 26.76
698 21 5 0.38 11.16 24.24 25.54
699 21 6 -0.38 10.009999999999998 24.2 25.150000000000002