ITEM: TIMESTEP
0
ITEM: NUMBER OF ATOMS
1128
ITEM: BOX BOUNDS ss ss ss
6.0560000000000000e+00 1.7154000000000003e+01
1.6026000000000000e+01 2.6794000000000000e+01
1.1100000000000001e+00 1.8099000000000004e+02
ITEM: ATOMS id type xs ys zs c_pot
727 3 0.6275 0.759101 0.059095 -0.000175029
728 4 0.622995 0.876114 0.0542584 -0.000445195
729 4 0.678861 0.979198 0.0580387 -0.000503634
731 5 0.689674 0.65416 0.0553702 -2.17565e-05
732 6 0.794197 0.625371 0.0559262 -2.79255e-05
733 7 0.613083 0.588224 0.051312 -0.000198457
734 2 0.527482 0.616085 0.0507005 0
735 4 0.656334 0.474926 0.0477541 -0.000375432
736 5 0.72842 0.500929 0.0409162 -0.000163208
737 6 0.735628 0.611441 0.0392484 -2.82439e-05
738 7 0.775275 0.404346 0.0373582 -0.000211521
739 3 0.849162 0.417348 0.0304648 -0.000190183
740 4 0.888809 0.285475 0.0291305 -0.0004008
741 4 0.807713 0.208395 0.0339671 -0.000463172
742 4 0.756352 0.278046 0.0403046 -0.00042891
743 5 0.774374 0.461924 0.0238492 -2.08859e-05
744 6 0.66084 0.456352 0.0239048 -2.59412e-05
745 7 0.837448 0.506501 0.0181788 -0.000197568
746 3 0.783384 0.543648 0.0111741 -0.000163851
747 4 0.888809 0.570579 0.00589282 -0.000409362
748 4 0.99964 0.568722 0.0103958 -0.000445922
749 4 0.969003 0.526932 0.0182344 -0.000392303
750 5 0.714003 0.442422 0.00667111 -1.23408e-05
751 8 0.747342 0.33841 0.00867245 -7.77243e-06
752 8 0.663543 0.477712 0.000111185 -3.79385e-06
924 5 0.42386 0.281761 0.0564265 -0.000155772
925 6 0.526581 0.23997 0.0545364 -2.83184e-05
926 7 0.325644 0.257615 0.0526462 -0.000225392
927 3 0.326545 0.180535 0.0458083 -0.000171165
928 4 0.191386 0.163819 0.0440294 -0.000372101
929 4 0.140926 0.278975 0.0476429 -0.000429003
930 4 0.209407 0.309621 0.0547031 -0.000413594
931 5 0.386015 0.244614 0.0394152 -2.27596e-05
932 6 0.395927 0.356984 0.0391372 -3.30654e-05
933 7 0.429267 0.177749 0.0339115 -0.000196439
934 3 0.478825 0.235327 0.027018 -0.000168681
935 4 0.509461 0.1276 0.0217923 -0.000367594
936 4 0.502253 0.0115156 0.0265733 -0.000423174
937 4 0.434673 0.0403046 0.0335779 -0.000402477
938 5 0.386917 0.332838 0.0232933 -9.2521e-06
939 8 0.277888 0.304049 0.024016 -6.09221e-06
940 8 0.424761 0.389487 0.0169557 -3.18227e-06
1115 3 0.182375 0.747957 0.0617078 -0.0001913
1116 4 0.175167 0.88633 0.0604848 -0.000375443
1119 5 0.236439 0.686664 0.0552591 -2.54918e-05
1120 6 0.344567 0.659733 0.0552591 -3.80282e-05
1121 7 0.174266 0.659733 0.049533 -0.000208237
1122 3 0.232835 0.600297 0.0430287 -0.000135806
1123 4 0.112993 0.581724 0.0383033 -0.00032348
1124 4 0.000360425 0.625371 0.0426395 -0.000455541
1125 4 0.0445125 0.687593 0.0491995 -0.000466777
1126 5 0.33916 0.666233 0.0382477 -8.20799e-06
1127 8 0.335556 0.796248 0.0397487 -5.36578e-06
1128 8 0.385114 0.601226 0.0324105 -3.51637e-06
702 4 0.613083 0.989413 0.124861 -0.00037131
705 5 0.489638 0.811107 0.11869 -2.07541e-05
706 6 0.531087 0.71081 0.118913 -3.39754e-05
707 7 0.428365 0.864042 0.113131 -0.000212605
708 3 0.410344 0.78789 0.106237 -0.000184605
709 4 0.340962 0.879829 0.101512 -0.000413427
710 4 0.286899 0.969911 0.106793 -0.000449028
711 4 0.379708 0.990342 0.112797 -0.000408471
712 5 0.530186 0.76003 0.102846 -2.26071e-05
713 6 0.624797 0.825037 0.103625 -2.60669e-05
714 7 0.531087 0.656018 0.0991216 -0.000210911
715 2 0.458101 0.602155 0.0992884 0
716 4 0.633808 0.616085 0.094841 -0.000366958
717 5 0.653631 0.702452 0.0882255 -0.000144446
718 6 0.582447 0.783247 0.0860574 -2.90999e-05
719 7 0.757254 0.682021 0.0846676 -0.000209396
720 3 0.783384 0.757244 0.0782188 -0.000167416
721 4 0.915841 0.720097 0.0766622 -0.000357137
722 4 0.927555 0.589153 0.0798866 -0.00044347
723 4 0.851865 0.59101 0.0866133 -0.000433571
724 5 0.710398 0.726597 0.0712697 -2.23817e-05
725 6 0.659939 0.621657 0.0712141 -3.40568e-05
726 7 0.69508 0.804606 0.0655437 -0.000212831
730 4 0.732024 0.934621 0.0651545 -0.000426596
896 3 0.780681 0.552006 0.122415 -0.000190157
897 4 0.879798 0.59101 0.117189 -0.000386939
898 4 0.996936 0.593796 0.121581 -0.000436523
900 5 0.721211 0.438707 0.119024 -2.35554e-05
901 6 0.757254 0.329123 0.119635 -2.6874e-05
902 7 0.622094 0.463782 0.114854 -0.000228234
903 2 0.589656 0.550149 0.114632 0
904 4 0.565327 0.36627 0.110852 -0.000394319
905 5 0.636511 0.326337 0.104125 -0.000154333
906 6 0.730222 0.377415 0.102402 -3.07852e-05
907 7 0.59326 0.228826 0.100178 -0.000210483
908 3 0.659939 0.187036 0.093618 -0.000184134
909 4 0.605875 0.0598068 0.0920614 -0.000389759
910 4 0.481528 0.0700223 0.0953413 -0.000432278
911 4 0.484231 0.156389 0.101957 -0.000400306
912 5 0.640115 0.267831 0.0867801 -2.37977e-05
913 6 0.556316 0.343982 0.0867245 -3.364e-05
914 7 0.714904 0.255758 0.0811652 -0.000211142
915 3 0.699586 0.327266 0.0742161 -0.000184631
916 4 0.803208 0.276189 0.0696575 -0.000405074
917 4 0.896918 0.235327 0.0751056 -0.00042007
918 4 0.817625 0.170319 0.0808873 -0.00039451
919 5 0.577041 0.293834 0.070825 -2.02157e-05
920 6 0.52568 0.191679 0.0714365 -2.66274e-05
921 7 0.522977 0.383915 0.0671559 -0.000188862
922 2 0.559921 0.468425 0.0673227 0
923 4 0.410344 0.369056 0.0629308 -0.000354107
1093 5 0.276987 0.430349 0.119969 -0.000161219
1094 6 0.307623 0.321694 0.117856 -2.75384e-05
1095 7 0.195891 0.498143 0.116244 -0.000243713
1096 3 0.138223 0.45078 0.109517 -0.000183017
1097 4 0.0391061 0.544577 0.10785 -0.000392639
1098 4 0.079654 0.656947 0.112075 -0.000456361
1099 4 0.158046 0.619799 0.118412 -0.000455654
1100 5 0.226527 0.445208 0.102735 -2.22551e-05
1101 6 0.320238 0.511144 0.102902 -3.19786e-05
1102 7 0.198594 0.369056 0.0972315 -0.000201459
1103 3 0.267976 0.370914 0.0905048 -0.000167092
1104 4 0.197693 0.279903 0.0854459 -0.000387841
1105 4 0.131916 0.196322 0.0906716 -0.000426621
1106 4 0.0967742 0.280832 0.0971203 -0.000389073
1107 5 0.265273 0.498143 0.0869469 -2.15784e-05
1108 6 0.180573 0.572437 0.0878363 -2.66051e-05
1109 7 0.363489 0.524146 0.0831666 -0.000155453
1110 2 0.432871 0.46471 0.083111 0
1111 4 0.368895 0.645802 0.0788303 -0.000281534
1112 5 0.280591 0.635587 0.0719368 -0.000118089
1113 6 0.225626 0.536218 0.0702135 -2.6099e-05
1114 7 0.268877 0.743314 0.0681565 -0.000216726
1117 4 0.299513 0.936478 0.0627641 -0.000387308
1118 4 0.331051 0.860327 0.0697131 -0.000390729
679 5 0.281492 0.637444 0.182789 -0.00014069
680 6 0.22923 0.545505 0.181176 -3.21542e-05
681 7 0.269778 0.742385 0.179231 -0.000218667
682 3 0.189584 0.744242 0.172726 -0.000174376
683 4 0.174266 0.884473 0.171281 -0.000397077
684 4 0.295008 0.931835 0.173393 -0.000424991
685 4 0.33015 0.861256 0.180565 -0.000382876
686 5 0.248153 0.683878 0.166055 -2.30219e-05
687 6 0.354478 0.656947 0.166055 -3.44918e-05
688 7 0.17787 0.66159 0.160218 -0.000209539
689 3 0.231934 0.604012 0.153547 -0.00016685
690 4 0.125608 0.595654 0.147988 -0.000382335
691 4 0.0165796 0.606798 0.152824 -0.000454887
692 4 0.0490178 0.686664 0.159273 -0.000425262
693 5 0.329249 0.688522 0.1501 -2.16349e-05
694 6 0.333754 0.804606 0.150767 -2.56466e-05
695 7 0.413047 0.629086 0.146153 -0.000210367
696 2 0.407641 0.536218 0.145653 0
697 4 0.510362 0.695022 0.142595 -0.000365904
698 5 0.459903 0.762816 0.135813 -0.000144232
699 6 0.35628 0.759101 0.133645 -3.03823e-05
700 7 0.542801 0.829681 0.132255 -0.000238883
701 3 0.505857 0.893759 0.125639 -0.000155202
703 4 0.718508 0.923477 0.128141 -0.000437982
704 4 0.668048 0.840825 0.134201 -0.000428472
871 4 0.911335 0.72474 0.187292 -0.000391269
874 5 0.702289 0.729383 0.182455 -2.29106e-05
875 6 0.651829 0.630944 0.182288 -3.51166e-05
876 7 0.691476 0.807392 0.176451 -0.000203496
877 3 0.6275 0.769316 0.169669 -0.000195921
878 4 0.638313 0.882615 0.164888 -0.00040539
879 4 0.681564 0.987556 0.169724 -0.00043775
880 4 0.74554 0.932764 0.176284 -0.000406447
881 5 0.690575 0.655089 0.166333 -2.10796e-05
882 6 0.789692 0.627229 0.167223 -2.9029e-05
883 7 0.613985 0.590082 0.162219 -0.000206148
884 2 0.529285 0.617942 0.161719 0
885 4 0.651829 0.477712 0.158439 -0.000385203
886 5 0.730222 0.508358 0.15199 -0.000166569
887 6 0.747342 0.613299 0.150156 -3.19795e-05
888 7 0.774374 0.40899 0.148488 -0.000215556
889 3 0.850964 0.430349 0.141817 -0.000177225
890 4 0.896918 0.297548 0.140761 -0.000458842
891 4 0.817625 0.208395 0.144096 -0.000507127
892 4 0.756352 0.277117 0.150267 -0.000420057
893 5 0.781582 0.469354 0.13509 -2.28715e-05
894 6 0.671653 0.45821 0.134812 -3.5166e-05
895 7 0.838349 0.513001 0.129308 -0.000187685
899 4 0.971707 0.531575 0.128753 -0.000412989
1065 3 0.70319 0.323551 0.185624 -0.000167969
1066 4 0.807713 0.274331 0.180732 -0.000386305
1067 4 0.899622 0.231612 0.186235 -0.000489373
1069 5 0.578843 0.297548 0.182177 -2.1694e-05
1070 6 0.529285 0.194465 0.183011 -2.78864e-05
1071 7 0.530186 0.384844 0.178341 -0.000215038
1072 2 0.567129 0.469354 0.178286 0
1073 4 0.422959 0.363484 0.17406 -0.000398423
1074 5 0.434673 0.283618 0.167389 -0.000170232
1075 6 0.531988 0.240899 0.165332 -3.08049e-05
1076 7 0.334655 0.259473 0.16372 -0.000210926
1077 3 0.337358 0.179606 0.157216 -0.000182441
1078 4 0.2031 0.158247 0.155993 -0.000419053
1079 4 0.143629 0.271545 0.158773 -0.000481608
1080 4 0.213011 0.306835 0.165499 -0.000426299
1081 5 0.391422 0.243685 0.150545 -2.30174e-05
1082 6 0.397729 0.361627 0.150322 -3.37104e-05
1083 7 0.426563 0.178678 0.144708 -0.000201533
1084 3 0.468913 0.235327 0.137814 -0.000180124
1085 4 0.495044 0.125743 0.1327 -0.000399336
1086 4 0.504055 0.0115156 0.137369 -0.000437554
1087 4 0.430168 0.042162 0.144152 -0.000406077
1088 5 0.368895 0.319837 0.134367 -2.16641e-05
1089 6 0.261669 0.301263 0.135368 -2.68432e-05
1090 7 0.412146 0.412704 0.130643 -0.000211911
1091 2 0.501352 0.429421 0.130754 0
1092 4 0.335556 0.494428 0.126418 -0.000384113
651 3 0.467111 0.236256 0.249166 -0.000180568
652 4 0.497747 0.130386 0.243829 -0.000394327
653 4 0.506758 0.018945 0.248721 -0.000413714
655 5 0.371598 0.32448 0.245664 -2.23558e-05
656 6 0.263471 0.305906 0.246664 -2.6508e-05
657 7 0.41485 0.421062 0.241717 -0.000241141
658 2 0.503154 0.438707 0.24155 0
659 4 0.331952 0.495357 0.237825 -0.000405757
660 5 0.276987 0.434064 0.231043 -0.000151657
661 6 0.310326 0.329123 0.229097 -3.00504e-05
662 7 0.198594 0.5 0.227318 -0.000236915
663 3 0.140926 0.447065 0.220592 -0.000167633
664 4 0.036403 0.540862 0.219535 -0.000413564
665 4 0.0832582 0.658804 0.222315 -0.000446133
666 4 0.163453 0.625371 0.229042 -0.000406719
667 5 0.230132 0.444279 0.214143 -2.08626e-05
668 6 0.320238 0.512073 0.213976 -3.26068e-05
669 7 0.199495 0.369985 0.208472 -0.000189193
670 3 0.269778 0.374629 0.201523 -0.000165308
671 4 0.208506 0.274331 0.196631 -0.000364592
672 4 0.131015 0.197251 0.201801 -0.000406157
673 4 0.0949721 0.282689 0.208194 -0.000374059
674 5 0.269778 0.502786 0.197854 -2.07684e-05
675 6 0.182375 0.570579 0.199022 -2.6425e-05
676 7 0.365291 0.526003 0.19374 -0.000193654
677 2 0.433772 0.466568 0.193629 0
678 4 0.369796 0.64023 0.189348 -0.000346904
848 5 0.459002 0.760958 0.247054 -0.000147089
849 6 0.352676 0.757244 0.245052 -2.95695e-05
850 7 0.540097 0.829681 0.243384 -0.000198004
851 3 0.504956 0.90026 0.23688 -0.000174596
852 4 0.612182 0.989413 0.235879 -0.000372238
853 4 0.717607 0.916048 0.238937 -0.000459111
854 4 0.670751 0.843611 0.245219 -0.000427354
855 5 0.487836 0.818536 0.230042 -2.2687e-05
856 6 0.528383 0.715453 0.230098 -3.45253e-05
857 7 0.426563 0.868685 0.224483 -0.000228492
858 3 0.407641 0.793462 0.217534 -0.000215598
859 4 0.343666 0.882615 0.212753 -0.000427785
860 4 0.276987 0.965267 0.21809 -0.000396664
861 4 0.374302 0.99127 0.224149 -0.000389601
862 5 0.530186 0.76653 0.21431 -2.22502e-05
863 6 0.622995 0.828752 0.21481 -2.69034e-05
864 7 0.530186 0.663447 0.210362 -0.000202093
865 2 0.456298 0.610513 0.210474 0
866 4 0.630204 0.622585 0.205748 -0.000338441
867 5 0.656334 0.708024 0.19891 -0.000127328
868 6 0.579744 0.78789 0.197354 -2.872e-05
869 7 0.757254 0.687593 0.195519 -0.000210392
870 3 0.781582 0.762816 0.188793 -0.000183312
872 4 0.92395 0.594725 0.190294 -0.000424534
873 4 0.853667 0.599368 0.197521 -0.000397594
1043 5 0.776176 0.471211 0.246331 -2.31661e-05
1044 6 0.666246 0.457281 0.245997 -3.43596e-05
1045 7 0.835646 0.515788 0.240716 -0.000213974
1046 3 0.776176 0.552935 0.233878 -0.000164568
1047 4 0.877095 0.596582 0.228486 -0.00040341
1048 4 0.989728 0.592868 0.232766 -0.000461809
1049 4 0.965399 0.534361 0.240216 -0.000419471
1050 5 0.721211 0.441493 0.230487 -2.20113e-05
1051 6 0.755451 0.330981 0.230987 -2.63471e-05
1052 7 0.617589 0.46471 0.226262 -0.000184981
1053 2 0.581546 0.550149 0.226206 0
1054 4 0.562624 0.364413 0.221815 -0.000348398
1055 5 0.637412 0.330981 0.215088 -0.000152634
1056 6 0.732925 0.382058 0.213309 -2.93903e-05
1057 7 0.598666 0.234398 0.211252 -0.000198728
1058 3 0.661741 0.186107 0.204636 -0.000173343
1059 4 0.607677 0.0570208 0.20308 -0.000345947
1060 4 0.480627 0.0728083 0.206471 -0.000414031
1061 4 0.487836 0.161033 0.212864 -0.000405502
1062 5 0.64372 0.270617 0.19791 -2.25402e-05
1063 6 0.55902 0.348626 0.197632 -3.26155e-05
1064 7 0.72031 0.257615 0.192406 -0.000204365
1068 4 0.827536 0.17682 0.192128 -0.000456592
629 5 0.642819 0.269688 0.309206 -2.31497e-05
630 6 0.559921 0.348626 0.308928 -3.25095e-05
631 7 0.719409 0.2539 0.303647 -0.000200206
632 3 0.705893 0.323551 0.296753 -0.000177141
633 4 0.808614 0.27526 0.291861 -0.000372224
634 4 0.89872 0.225111 0.297476 -0.000453997
635 4 0.826635 0.172177 0.303536 -0.000435643
636 5 0.582447 0.298477 0.293307 -2.22246e-05
637 6 0.532889 0.194465 0.294196 -2.6821e-05
638 7 0.534691 0.389487 0.28936 -0.000221697
639 2 0.573437 0.473068 0.289193 0
640 4 0.426563 0.36627 0.285301 -0.000392193
641 5 0.436475 0.282689 0.27863 -0.000156978
642 6 0.534691 0.241828 0.276684 -3.02987e-05
643 7 0.334655 0.260401 0.274961 -0.00023694
644 3 0.341863 0.179606 0.268346 -0.000190601
645 4 0.210308 0.151746 0.267011 -0.000379755
646 4 0.143629 0.266902 0.269847 -0.000415529
647 4 0.215715 0.306835 0.276518 -0.000434824
648 5 0.392323 0.246471 0.261674 -2.46458e-05
649 6 0.401334 0.361627 0.26123 -3.52831e-05
650 7 0.426563 0.179606 0.256171 -0.000233163
654 4 0.431069 0.0468053 0.255726 -0.000409242
821 4 0.210308 0.27526 0.307928 -0.000420836
824 5 0.267976 0.499071 0.309373 -2.12924e-05
825 6 0.181474 0.572437 0.310207 -2.62332e-05
826 7 0.365291 0.52786 0.305259 -0.00019453
827 2 0.437376 0.47214 0.305315 0
828 4 0.366192 0.64023 0.3007 -0.000361484
829 5 0.280591 0.638373 0.294196 -0.000154832
830 6 0.230132 0.545505 0.292417 -3.33587e-05
831 7 0.268877 0.739599 0.29036 -0.000207815
832 3 0.190485 0.742385 0.283911 -0.000174973
833 4 0.174266 0.882615 0.282522 -0.000395928
834 4 0.294107 0.931835 0.284745 -0.000449199
835 4 0.327446 0.861256 0.291694 -0.000400423
836 5 0.248153 0.682021 0.277185 -2.27881e-05
837 6 0.35628 0.655089 0.277296 -3.40834e-05
838 7 0.178771 0.662519 0.271292 -0.0001977
839 3 0.235538 0.608655 0.264843 -0.000162131
840 4 0.126509 0.600297 0.259395 -0.000396945
841 4 0.0183817 0.603083 0.264176 -0.000445598
842 4 0.0490178 0.693165 0.270402 -0.000385792
843 5 0.33015 0.687593 0.261341 -2.29141e-05
844 6 0.33015 0.802749 0.261952 -2.71663e-05
845 7 0.413047 0.627229 0.257338 -0.000232799
846 2 0.408542 0.534361 0.256893 0
847 4 0.507659 0.693165 0.253836 -0.00039171
1017 5 0.654532 0.708024 0.310207 -0.000130863
1018 6 0.578843 0.788819 0.308706 -2.77898e-05
1019 7 0.757254 0.686664 0.306816 -0.000243304
1020 3 0.786088 0.758172 0.300145 -0.000183751
1021 4 0.916742 0.722883 0.298699 -0.000374065
1022 4 0.930258 0.591939 0.301868 -0.000439537
1023 4 0.849162 0.597511 0.308372 -0.000470808
1024 5 0.704091 0.725669 0.293418 -2.12251e-05
1025 6 0.649126 0.629086 0.293418 -3.44749e-05
1026 7 0.69508 0.805535 0.28797 -0.000188636
1027 3 0.628402 0.773031 0.281243 -0.000195493
1028 4 0.642819 0.881686 0.276073 -0.000446408
1029 4 0.677059 0.985698 0.280798 -0.000494375
1030 4 0.741935 0.93555 0.287358 -0.000407728
1031 5 0.686971 0.656947 0.277796 -2.19279e-05
1032 6 0.789692 0.629086 0.278575 -2.925e-05
1033 7 0.615787 0.589153 0.27346 -0.000233653
1034 2 0.531087 0.617942 0.272737 0
1035 4 0.65273 0.47864 0.269847 -0.000385966
1036 5 0.732024 0.508358 0.26312 -0.000142486
1037 6 0.750045 0.617013 0.261341 -2.94293e-05
1038 7 0.775275 0.40899 0.259562 -0.000219101
1039 3 0.850063 0.429421 0.253113 -0.000175508
1040 4 0.896918 0.297548 0.251723 -0.000390873
1041 4 0.811317 0.205609 0.255115 -0.0004433
1042 4 0.758155 0.278046 0.261396 -0.000429206
603 5 0.735628 0.510215 0.374138 -0.000143304
604 6 0.749144 0.616085 0.372471 -3.09749e-05
605 7 0.777978 0.411776 0.37058 -0.000204411
606 3 0.850063 0.428492 0.363965 -0.000170751
607 4 0.899622 0.295691 0.362853 -0.000398154
608 4 0.812218 0.209324 0.366355 -0.000496107
609 4 0.76266 0.278975 0.372582 -0.000449345
610 5 0.777077 0.47214 0.357405 -2.2872e-05
611 6 0.668949 0.457281 0.357183 -3.48397e-05
612 7 0.838349 0.519502 0.35179 -0.000226033
613 3 0.777077 0.553863 0.344952 -0.000169967
614 4 0.879798 0.595654 0.339726 -0.000410822
615 4 0.987926 0.590082 0.344396 -0.000531625
616 4 0.967201 0.539004 0.351679 -0.00048937
617 5 0.716706 0.441493 0.341505 -2.17679e-05
618 6 0.757254 0.332838 0.342284 -2.67666e-05
619 7 0.619391 0.461924 0.337225 -0.000189018
620 2 0.584249 0.547363 0.337002 0
621 4 0.562624 0.360698 0.333 -0.000366634
622 5 0.640115 0.333767 0.32644 -0.000165059
623 6 0.731123 0.38763 0.32455 -2.95523e-05
624 7 0.596864 0.236256 0.322437 -0.000212495
625 3 0.661741 0.187036 0.3161 -0.000172607
626 4 0.606776 0.0588782 0.314265 -0.000399739
627 4 0.484231 0.070951 0.317378 -0.000445792
628 4 0.486034 0.164747 0.323716 -0.000397819
798 5 0.397729 0.246471 0.372693 -2.41296e-05
799 6 0.403136 0.362556 0.372193 -3.42724e-05
800 7 0.432871 0.177749 0.367134 -0.000215214
801 3 0.47432 0.237184 0.360351 -0.00019352
802 4 0.501352 0.129458 0.355292 -0.000424938
803 4 0.510362 0.018945 0.360129 -0.000459294
804 4 0.434673 0.042162 0.366911 -0.000418063
805 5 0.379708 0.32448 0.357016 -2.27973e-05
806 6 0.267075 0.304978 0.357738 -2.76531e-05
807 7 0.416652 0.418276 0.352958 -0.000207719
808 2 0.504055 0.437779 0.352402 0
809 4 0.326545 0.493499 0.349288 -0.000392885
810 5 0.277888 0.434064 0.342506 -0.000171866
811 6 0.308524 0.328195 0.340394 -2.96917e-05
812 7 0.198594 0.5 0.338503 -0.000206201
813 3 0.141827 0.449851 0.331944 -0.000171977
814 4 0.0382051 0.542719 0.330609 -0.000376462
815 4 0.0895657 0.66159 0.333667 -0.000427809
816 4 0.164354 0.629086 0.340449 -0.000393388
817 5 0.230132 0.446137 0.325439 -2.19397e-05
818 6 0.317535 0.510215 0.325161 -3.51372e-05
819 7 0.200396 0.372771 0.319769 -0.000213376
820 3 0.27158 0.372771 0.312875 -0.000175468
822 4 0.128311 0.207467 0.31282 -0.000478093
823 4 0.0976753 0.288262 0.319324 -0.000421693
990 4 0.129212 0.593796 0.370358 -0.000407733
993 5 0.331952 0.682021 0.372359 -2.36237e-05
994 6 0.328347 0.799034 0.373082 -2.72155e-05
995 7 0.41485 0.625371 0.368468 -0.00024882
996 2 0.41485 0.532504 0.36819 0
997 4 0.503154 0.692236 0.364632 -0.000405245
998 5 0.457199 0.764673 0.357905 -0.000144141
999 6 0.350874 0.754458 0.355904 -2.87769e-05
1000 7 0.542801 0.833395 0.354403 -0.000246041
1001 3 0.503154 0.901189 0.347954 -0.000192261
1002 4 0.613083 0.981984 0.347009 -0.000443312
1003 4 0.717607 0.918834 0.350233 -0.000548444
1004 4 0.668048 0.846397 0.356126 -0.000522198
1005 5 0.485132 0.818536 0.341227 -2.29611e-05
1006 6 0.526581 0.713596 0.341061 -3.40417e-05
1007 7 0.42386 0.866828 0.335668 -0.000195937
1008 3 0.405839 0.795319 0.328942 -0.000182162
1009 4 0.340962 0.883544 0.32366 -0.000387064
1010 4 0.276987 0.968053 0.329053 -0.000412781
1011 4 0.367994 0.992199 0.335279 -0.000377053
1012 5 0.527482 0.765602 0.325662 -2.14556e-05
1013 6 0.619391 0.825966 0.326106 -2.83021e-05
1014 7 0.531087 0.662519 0.321492 -0.000206234
1015 2 0.457199 0.608655 0.321437 0
1016 4 0.632907 0.622585 0.317045 -0.000345759
576 4 0.326545 0.867756 0.434512 -0.000362277
579 5 0.530186 0.767459 0.436458 -2.01435e-05
580 6 0.6275 0.825037 0.437069 -2.48165e-05
581 7 0.53379 0.660661 0.432344 -0.000204933
582 2 0.461705 0.604941 0.432566 0
583 4 0.634709 0.621657 0.427785 -0.00035632
584 5 0.648225 0.71081 0.42117 -0.000139879
585 6 0.572536 0.790676 0.419557 -2.73619e-05
586 7 0.752748 0.686664 0.417834 -0.000241813
587 3 0.777978 0.76003 0.411274 -0.000186225
588 4 0.908632 0.725669 0.409884 -0.000434577
589 4 0.928456 0.604012 0.413276 -0.000469489
590 4 0.844657 0.599368 0.419891 -0.000434704
591 5 0.701388 0.721954 0.404659 -2.21267e-05
592 6 0.647324 0.624443 0.404492 -3.29519e-05
593 7 0.692377 0.805535 0.39871 -0.000195149
594 3 0.6275 0.769316 0.392206 -0.000185906
595 4 0.633808 0.882615 0.387203 -0.000436565
596 4 0.683366 0.97734 0.392095 -0.000549648
597 4 0.743738 0.933692 0.398655 -0.00045534
598 5 0.689674 0.655089 0.38887 -2.2007e-05
599 6 0.791494 0.6263 0.389593 -2.93616e-05
600 7 0.615787 0.588224 0.38459 -0.00022691
601 2 0.530186 0.613299 0.383867 0
602 4 0.66084 0.479569 0.381032 -0.000383134
772 5 0.638313 0.328195 0.436902 -0.000134242
773 6 0.739232 0.383915 0.435012 -2.51284e-05
774 7 0.595963 0.229755 0.433122 -0.000200554
775 3 0.664444 0.183321 0.42684 -0.000197934
776 4 0.607677 0.0588782 0.42545 -0.000429074
777 4 0.48333 0.0783804 0.428119 -0.000524718
778 4 0.482429 0.159175 0.434512 -0.000454994
779 5 0.64372 0.268759 0.420113 -2.37747e-05
780 6 0.560822 0.344911 0.420169 -3.38972e-05
781 7 0.72031 0.255758 0.41461 -0.000210972
782 3 0.705893 0.323551 0.407772 -0.000169788
783 4 0.807713 0.274331 0.402713 -0.000355158
784 4 0.902325 0.229755 0.408328 -0.000414557
785 4 0.827536 0.17682 0.414499 -0.000421268
786 5 0.582447 0.297548 0.404158 -2.29413e-05
787 6 0.532889 0.193536 0.404881 -2.71361e-05
788 7 0.532889 0.388559 0.400322 -0.000237125
789 2 0.570733 0.473068 0.400211 0
790 4 0.425662 0.364413 0.396375 -0.000410343
791 5 0.439178 0.281761 0.389704 -0.000158315
792 6 0.535592 0.240899 0.387703 -3.12507e-05
793 7 0.33916 0.260401 0.386091 -0.000215294
794 3 0.345468 0.179606 0.379308 -0.000201237
795 4 0.215715 0.150817 0.377974 -0.000415102
796 4 0.142728 0.254829 0.381199 -0.000415219
797 4 0.216616 0.30312 0.387814 -0.000388026
967 5 0.228329 0.451709 0.43618 -2.19854e-05
968 6 0.32204 0.51393 0.436458 -3.33918e-05
969 7 0.19499 0.379272 0.430342 -0.000200557
970 3 0.273383 0.369056 0.423671 -0.000178939
971 4 0.213912 0.277117 0.418334 -0.000385269
972 4 0.114795 0.218611 0.422837 -0.00044239
973 4 0.0850604 0.305906 0.429008 -0.000417013
974 5 0.272482 0.495357 0.420169 -2.19736e-05
975 6 0.185979 0.570579 0.421225 -2.75344e-05
976 7 0.368895 0.528789 0.415833 -0.000177255
977 2 0.440079 0.473068 0.415444 0
978 4 0.366192 0.648588 0.411719 -0.00031704
979 5 0.276086 0.634658 0.405103 -0.000127673
980 6 0.224725 0.539004 0.403658 -2.87396e-05
981 7 0.270679 0.739599 0.401379 -0.000230388
982 3 0.189584 0.742385 0.39493 -0.000175953
983 4 0.168859 0.882615 0.393874 -0.000414974
984 4 0.286899 0.932764 0.395931 -0.000449564
985 4 0.331952 0.856612 0.402602 -0.000403174
986 5 0.250856 0.681092 0.388259 -2.19321e-05
987 6 0.357181 0.653232 0.38837 -3.45245e-05
988 7 0.183276 0.657875 0.382366 -0.000179396
989 3 0.235538 0.602155 0.375862 -0.000170988
991 4 0.0210849 0.600297 0.375083 -0.000442281
992 4 0.0499189 0.685736 0.381643 -0.000359417
565 1 0.561723 0.840825 0.465143 -3.54448e-06
566 2 0.579744 0.902117 0.469202 0
567 2 0.495945 0.783247 0.466811 0
568 3 0.521175 0.909547 0.45825 -0.000154908
569 4 0.6275 0.999629 0.456304 -0.000348285
570 4 0.732925 0.922548 0.458861 -0.00037088
571 4 0.696882 0.85104 0.4662 -0.000174308
572 5 0.492341 0.819465 0.451912 -1.96267e-05
573 6 0.532889 0.714525 0.451634 -3.26567e-05
574 7 0.422959 0.86497 0.446575 -0.000189532
575 3 0.403136 0.791605 0.439682 -0.000193066
577 4 0.273383 0.967125 0.439849 -0.000414096
578 4 0.357181 0.985698 0.446186 -0.000406824
753 1 0.774374 0.434064 0.480987 -4.61478e-06
754 2 0.823031 0.413633 0.48549 0
755 2 0.736529 0.517645 0.481654 0
756 3 0.852766 0.435921 0.474261 -0.000176792
757 4 0.899622 0.30312 0.472926 -0.000386089
758 4 0.823031 0.238113 0.478486 -0.000421088
759 4 0.816724 0.323551 0.485268 -0.000210879
760 5 0.782483 0.466568 0.467478 -2.26134e-05
761 6 0.674356 0.443351 0.467645 -3.24918e-05
762 7 0.851865 0.512073 0.462308 -0.000221389
763 3 0.786989 0.548291 0.45547 -0.000179612
764 4 0.886106 0.59101 0.450189 -0.000395484
765 4 0.995134 0.605869 0.45497 -0.000452202
766 4 0.980717 0.531575 0.461919 -0.000433688
767 5 0.718508 0.435921 0.452357 -1.96492e-05
768 6 0.755451 0.326337 0.453525 -2.3938e-05
769 7 0.614886 0.460067 0.448243 -0.000192069
770 2 0.578843 0.544577 0.448632 0
771 4 0.556316 0.369056 0.443407 -0.000335648
941 1 0.349973 0.313336 0.497054 -3.52092e-06
943 2 0.427464 0.360698 0.49761 0
944 3 0.367994 0.213039 0.491661 -0.000167635
945 4 0.243648 0.150817 0.490938 -0.000367479
946 4 0.176068 0.188893 0.497832 -0.000430173
948 5 0.404037 0.260401 0.484045 -1.88446e-05
949 6 0.412146 0.372771 0.482877 -3.01692e-05
950 7 0.429267 0.185178 0.478486 -0.000202988
951 3 0.461705 0.23997 0.471259 -0.000157741
952 4 0.47432 0.129458 0.465644 -0.000373615
953 4 0.456298 0.0180163 0.470425 -0.000458748
954 4 0.434673 0.0486627 0.478374 -0.000417949
955 5 0.369796 0.330981 0.467756 -2.11294e-05
956 6 0.258966 0.318908 0.468479 -2.46872e-05
957 7 0.416652 0.425706 0.463809 -0.000202773
958 2 0.504956 0.441493 0.463754 0
959 4 0.334655 0.504643 0.459695 -0.000333381
960 5 0.27969 0.434064 0.452802 -0.000121031
961 6 0.305821 0.327266 0.450912 -2.64618e-05
962 7 0.202199 0.505572 0.449077 -0.000194056
963 3 0.137322 0.457281 0.442462 -0.000198741
964 4 0.0472157 0.557578 0.441072 -0.000416282
965 4 0.0913678 0.67552 0.444519 -0.000415578
966 4 0.175167 0.638373 0.450967 -0.000365005
163 3 0.409443 0.774889 0.558317 9.91545e+24
164 4 0.343666 0.867756 0.553369 9.37188e+20
165 4 0.286899 0.961553 0.558372 9.37188e+20
167 5 0.530186 0.742385 0.554759 1.39669e+26
168 6 0.621193 0.810178 0.555648 1.09451e+26
169 7 0.538295 0.64023 0.550812 1.83433e+26
170 2 0.464408 0.586367 0.550478 1.43301e+26
171 4 0.648225 0.599368 0.546865 9.91498e+24
172 5 0.668048 0.682021 0.540138 1.39669e+26
173 6 0.587854 0.756315 0.538303 1.09451e+26
174 7 0.774374 0.662519 0.536858 5.00467e+25
175 3 0.812218 0.739599 0.53052 9.91545e+24
176 4 0.939268 0.692236 0.528352 9.37188e+20
177 4 0.938367 0.565936 0.531743 9.37188e+20
178 4 0.862678 0.567793 0.538859 9.91498e+24
179 5 0.730222 0.720097 0.523905 1.39669e+26
180 6 0.672554 0.619799 0.524072 1.09451e+26
181 7 0.72031 0.802749 0.518401 5.00467e+25
182 3 0.641917 0.76653 0.512008 9.91545e+24
183 4 0.633808 0.884473 0.507283 9.37188e+20
184 4 0.725716 0.968053 0.510173 9.37188e+20
185 4 0.773473 0.922548 0.517678 9.91498e+24
186 5 0.69508 0.656947 0.507672 9.44588e+25
187 8 0.777978 0.579866 0.508283 4.72292e+25
188 8 0.632006 0.615156 0.501668 4.72292e+25
360 5 0.636511 0.307764 0.556204 -0.000153629
361 6 0.731123 0.363484 0.554759 -2.99502e-05
362 7 0.592359 0.209324 0.552424 -0.000210658
363 3 0.659038 0.161033 0.545975 -0.000193694
364 4 0.599567 0.0384473 0.544252 -0.000415956
365 4 0.477023 0.0560921 0.547365 -0.000440735
366 4 0.479726 0.142459 0.554092 -0.000389585
367 5 0.641917 0.244614 0.539415 -2.48177e-05
368 6 0.556316 0.317979 0.539304 -3.35999e-05
369 7 0.718508 0.239042 0.534023 -0.000207384
370 3 0.701388 0.315193 0.52724 -0.000131748
371 4 0.807713 0.26133 0.522126 -0.000347232
372 4 0.893314 0.203752 0.52763 -0.000449811
373 4 0.827536 0.161961 0.534356 -0.000426969
374 5 0.592359 0.312407 0.521681 -1.08981e-05
375 8 0.520274 0.228826 0.522181 -4.5731e-06
376 8 0.596864 0.391345 0.515788 -4.04055e-06
551 3 0.136421 0.442422 0.561263 -0.000181655
552 4 0.036403 0.537147 0.560096 -0.00036846
555 5 0.228329 0.433135 0.554648 -2.12593e-05
556 6 0.319337 0.499071 0.554703 -3.15307e-05
557 7 0.201298 0.351412 0.549589 -0.000204825
558 3 0.27158 0.349554 0.54264 -0.000180575
559 4 0.200396 0.266902 0.537469 -0.000366847
560 4 0.12741 0.18425 0.542806 -0.000350098
561 4 0.103983 0.259473 0.550256 -0.000349011
562 5 0.286899 0.482355 0.538637 -1.0821e-05
563 8 0.187782 0.547363 0.539582 -6.93836e-06
564 8 0.350874 0.485141 0.532244 -4.05643e-06
942 2 0.326545 0.277117 0.501946 0
947 4 0.223824 0.312407 0.500111 -0.000239579
137 3 0.188683 0.731241 0.624639 9.91545e+24
138 4 0.165255 0.867756 0.623416 9.37188e+20
141 5 0.252658 0.672734 0.617801 1.39669e+26
142 6 0.359885 0.645802 0.617912 1.09451e+26
143 7 0.182375 0.652303 0.612019 5.00467e+25
144 3 0.233736 0.599368 0.605181 9.91545e+24
145 4 0.124707 0.588224 0.599844 9.37188e+20
146 4 0.0165796 0.599368 0.604347 9.37188e+20
147 4 0.0526221 0.676449 0.611018 9.91498e+24
148 5 0.325644 0.686664 0.602012 1.39669e+26
149 6 0.337358 0.799963 0.602457 1.09451e+26
150 7 0.409443 0.622585 0.598177 1.83433e+26
151 2 0.404037 0.530646 0.597787 1.43301e+26
152 4 0.50856 0.691308 0.594563 9.91498e+24
153 5 0.461705 0.755386 0.587614 1.39669e+26
154 6 0.355379 0.749814 0.585279 1.09451e+26
155 7 0.546405 0.824108 0.584112 5.00467e+25
156 3 0.506758 0.890973 0.577385 9.91545e+24
157 4 0.613985 0.980126 0.576384 9.37188e+20
158 4 0.72031 0.913262 0.580498 9.37188e+20
159 4 0.673455 0.838967 0.586891 9.91498e+24
160 5 0.486935 0.806464 0.570547 1.39669e+26
161 6 0.528383 0.704309 0.570436 1.09451e+26
162 7 0.42386 0.848254 0.565099 5.00467e+25
166 4 0.360786 0.971768 0.564932 9.91498e+24
332 3 0.629303 0.76003 0.62147 -0.000165359
333 4 0.64372 0.877043 0.616522 -0.000394178
334 4 0.690575 0.97734 0.621359 -0.000476817
336 5 0.68607 0.648588 0.617801 -2.30549e-05
337 6 0.792395 0.619799 0.618968 -2.84126e-05
338 7 0.613083 0.585438 0.613798 -0.000227804
339 2 0.527482 0.61237 0.613242 0
340 4 0.65273 0.475854 0.610129 -0.00037823
341 5 0.734727 0.505572 0.603458 -0.000138151
342 6 0.751847 0.61237 0.601734 -2.97299e-05
343 7 0.77978 0.405275 0.5999 -0.000215634
344 3 0.853667 0.42292 0.593396 -0.000192539
345 4 0.900523 0.293834 0.592061 -0.00038899