ITEM: TIMESTEP
0
ITEM: NUMBER OF ATOMS
1128
ITEM: BOX BOUNDS pp pp ss
0.0000000000000000e+00 4.0000000000000000e+01
0.0000000000000000e+00 4.0000000000000000e+01
1.1100000000000001e+00 1.8099000000000004e+02
ITEM: ATOMS id type xs ys zs
936 4 0.29075 0.40375 0.0265733
934 3 0.28425 0.464 0.027018
938 5 0.25875 0.49025 0.0232933
939 8 0.2285 0.4825 0.024016
940 8 0.26925 0.5055 0.0169557
739 3 0.387 0.513 0.0304648
740 4 0.398 0.4775 0.0291305
743 5 0.36625 0.525 0.0238492
744 6 0.33475 0.5235 0.0239048
745 7 0.38375 0.537 0.0181788
746 3 0.36875 0.547 0.0111741
747 4 0.398 0.55425 0.00589282
749 4 0.42025 0.5425 0.0182344
750 5 0.3495 0.51975 0.00667111
751 8 0.35875 0.49175 0.00867245
752 8 0.3355 0.52925 0.000111185
935 4 0.29275 0.435 0.0217923
748 4 0.42875 0.55375 0.0103958
937 4 0.272 0.4115 0.0335779
924 5 0.269 0.4765 0.0564265
926 7 0.24175 0.47 0.0526462
927 3 0.242 0.44925 0.0458083
928 4 0.2045 0.44475 0.0440294
929 4 0.1905 0.47575 0.0476429
930 4 0.2095 0.484 0.0547031
931 5 0.2585 0.4665 0.0394152
932 6 0.26125 0.49675 0.0391372
933 7 0.2705 0.4485 0.0339115
1122 3 0.216 0.56225 0.0430287
1123 4 0.18275 0.55725 0.0383033
1124 4 0.1515 0.569 0.0426395
1128 8 0.25825 0.5625 0.0324105
732 6 0.37175 0.569 0.0559262
733 7 0.3215 0.559 0.051312
734 2 0.29775 0.5665 0.0507005
735 4 0.3335 0.5285 0.0477541
736 5 0.3535 0.5355 0.0409162
737 6 0.3555 0.56525 0.0392484
738 7 0.3665 0.5095 0.0373582
741 4 0.3755 0.45675 0.0339671
742 4 0.36125 0.4755 0.0403046
925 6 0.2975 0.46525 0.0545364
1115 3 0.202 0.602 0.0617078
1116 4 0.2 0.63925 0.0604848
1119 5 0.217 0.5855 0.0552591
1120 6 0.247 0.57825 0.0552591
1121 7 0.19975 0.57825 0.049533
1125 4 0.16375 0.58575 0.0491995
1126 5 0.2455 0.58 0.0382477
1127 8 0.2445 0.615 0.0397487
727 3 0.3255 0.605 0.059095
728 4 0.32425 0.6365 0.0542584
729 4 0.33975 0.66425 0.0580387
731 5 0.34275 0.57675 0.0553702
909 4 0.3195 0.41675 0.0920614
923 4 0.26525 0.5 0.0629308
1103 3 0.22575 0.5005 0.0905048
1104 4 0.20625 0.476 0.0854459
1105 4 0.188 0.4535 0.0906716
1107 5 0.225 0.53475 0.0869469
1108 6 0.2015 0.55475 0.0878363
1109 7 0.25225 0.54175 0.0831666
1110 2 0.2715 0.52575 0.083111
1113 6 0.214 0.545 0.0702135
722 4 0.40875 0.55925 0.0798866
723 4 0.38775 0.55975 0.0866133
725 6 0.3345 0.568 0.0712141
908 3 0.3345 0.451 0.093618
912 5 0.329 0.47275 0.0867801
913 6 0.30575 0.49325 0.0867245
914 7 0.34975 0.4695 0.0811652
915 3 0.3455 0.48875 0.0742161
916 4 0.37425 0.475 0.0696575
917 4 0.40025 0.464 0.0751056
918 4 0.37825 0.4465 0.0808873
919 5 0.3115 0.47975 0.070825
920 6 0.29725 0.45225 0.0714365
921 7 0.2965 0.504 0.0671559
922 2 0.30675 0.52675 0.0673227
1111 4 0.25375 0.5745 0.0788303
1112 5 0.22925 0.57175 0.0719368
1114 7 0.226 0.60075 0.0681565
1117 4 0.2345 0.65275 0.0627641
1118 4 0.24325 0.63225 0.0697131
717 5 0.33275 0.58975 0.0882255
718 6 0.313 0.6115 0.0860574
719 7 0.3615 0.58425 0.0846676
720 3 0.36875 0.6045 0.0782188
721 4 0.4055 0.5945 0.0766622
724 5 0.3485 0.59625 0.0712697
726 7 0.34425 0.61725 0.0655437
730 4 0.3545 0.65225 0.0651545
910 4 0.285 0.4195 0.0953413
715 2 0.2785 0.56275 0.0992884
1093 5 0.22825 0.5165 0.119969
1094 6 0.23675 0.48725 0.117856
1095 7 0.20575 0.53475 0.116244
1096 3 0.18975 0.522 0.109517
1097 4 0.16225 0.54725 0.10785
1099 4 0.19525 0.5675 0.118412
1100 5 0.21425 0.5205 0.102735
1101 6 0.24025 0.53825 0.102902
1102 7 0.2065 0.5 0.0972315
1106 4 0.17825 0.47625 0.0971203
716 4 0.32725 0.5665 0.094841
896 3 0.368 0.54925 0.122415
897 4 0.3955 0.55975 0.117189
898 4 0.428 0.5605 0.121581
900 5 0.3515 0.51875 0.119024
901 6 0.3615 0.48925 0.119635
902 7 0.324 0.5255 0.114854
903 2 0.315 0.54875 0.114632
904 4 0.30825 0.49925 0.110852
905 5 0.328 0.4885 0.104125
906 6 0.354 0.50225 0.102402
907 7 0.316 0.46225 0.100178
911 4 0.28575 0.44275 0.101957
707 7 0.27025 0.63325 0.113131
708 3 0.26525 0.61275 0.106237
709 4 0.246 0.6375 0.101512
710 4 0.231 0.66175 0.106793
711 4 0.25675 0.66725 0.112797
1098 4 0.1735 0.5775 0.112075
702 4 0.3215 0.667 0.124861
705 5 0.28725 0.619 0.11869
706 6 0.29875 0.592 0.118913
712 5 0.2985 0.60525 0.102846
713 6 0.32475 0.62275 0.103625
714 7 0.29875 0.57725 0.0991216
1087 4 0.27075 0.412 0.144152
1086 4 0.29125 0.40375 0.137369
689 3 0.21575 0.56325 0.153547
690 4 0.18625 0.561 0.147988
691 4 0.156 0.564 0.152824
695 7 0.266 0.57 0.146153
696 2 0.2645 0.545 0.145653
1078 4 0.20775 0.44325 0.155993
1081 5 0.26 0.46625 0.150545
1082 6 0.26175 0.498 0.150322
1083 7 0.26975 0.44875 0.144708
1084 3 0.2815 0.464 0.137814
1088 5 0.25375 0.48675 0.134367
1089 6 0.224 0.48175 0.135368
1090 7 0.26575 0.51175 0.130643
1092 4 0.2445 0.53375 0.126418
886 5 0.354 0.5375 0.15199
887 6 0.35875 0.56575 0.150156
888 7 0.36625 0.51075 0.148488
889 3 0.3875 0.5165 0.141817
890 4 0.40025 0.48075 0.140761
891 4 0.37825 0.45675 0.144096
892 4 0.36125 0.47525 0.150267
893 5 0.36825 0.527 0.13509
894 6 0.33775 0.524 0.134812
895 7 0.384 0.53875 0.129308
899 4 0.421 0.54375 0.128753
1085 4 0.28875 0.4345 0.1327
1091 2 0.2905 0.51625 0.130754
693 5 0.24275 0.586 0.1501
694 6 0.244 0.61725 0.150767
698 5 0.279 0.606 0.135813
699 6 0.25025 0.605 0.133645
697 4 0.293 0.58775 0.142595
700 7 0.302 0.624 0.132255
701 3 0.29175 0.64125 0.125639
703 4 0.35075 0.64925 0.128141
704 4 0.33675 0.627 0.134201
680 6 0.215 0.5475 0.181176
1073 4 0.26875 0.4985 0.17406
1074 5 0.272 0.477 0.167389
1076 7 0.24425 0.4705 0.16372
1077 3 0.245 0.449 0.157216
1079 4 0.19125 0.47375 0.158773
1080 4 0.2105 0.48325 0.165499
875 6 0.33225 0.5705 0.182288
882 6 0.3705 0.5695 0.167223
883 7 0.32175 0.5595 0.162219
884 2 0.29825 0.567 0.161719
885 4 0.33225 0.52925 0.158439
1065 3 0.3465 0.48775 0.185624
1066 4 0.3755 0.4745 0.180732
1067 4 0.401 0.463 0.186235
1069 5 0.312 0.48075 0.182177
1070 6 0.29825 0.453 0.183011
1071 7 0.2985 0.50425 0.178341
1072 2 0.30875 0.527 0.178286
1075 6 0.299 0.4655 0.165332
679 5 0.2295 0.57225 0.182789
681 7 0.22625 0.6005 0.179231
682 3 0.204 0.601 0.172726
683 4 0.19975 0.63875 0.171281
684 4 0.23325 0.6515 0.173393
685 4 0.243 0.6325 0.180565
686 5 0.22025 0.58475 0.166055
687 6 0.24975 0.5775 0.166055
688 7 0.20075 0.57875 0.160218
692 4 0.165 0.5855 0.159273
871 4 0.40425 0.59575 0.187292
874 5 0.34625 0.597 0.182455
876 7 0.34325 0.618 0.176451
877 3 0.3255 0.60775 0.169669
878 4 0.3285 0.63825 0.164888
879 4 0.3405 0.6665 0.169724
880 4 0.35825 0.65175 0.176284
881 5 0.343 0.577 0.166333
1060 4 0.28475 0.42025 0.206471
1059 4 0.32 0.416 0.20308
667 5 0.21525 0.52025 0.214143
668 6 0.24025 0.5385 0.213976
669 7 0.20675 0.50025 0.208472
670 3 0.22625 0.5015 0.201523
671 4 0.20925 0.4745 0.196631
672 4 0.18775 0.45375 0.201801
673 4 0.17775 0.47675 0.208194
674 5 0.22625 0.536 0.197854
675 6 0.202 0.55425 0.199022
676 7 0.25275 0.54225 0.19374
677 2 0.27175 0.52625 0.193629
865 2 0.278 0.565 0.210474
866 4 0.32625 0.56825 0.205748
872 4 0.40775 0.56075 0.190294
873 4 0.38825 0.562 0.197521
1055 5 0.32825 0.48975 0.215088
1056 6 0.35475 0.5035 0.213309
1057 7 0.3175 0.46375 0.211252
1058 3 0.335 0.45075 0.204636
1061 4 0.28675 0.444 0.212864
1062 5 0.33 0.4735 0.19791
1063 6 0.3065 0.4945 0.197632
1064 7 0.35125 0.47 0.192406
1068 4 0.381 0.44825 0.192128
678 4 0.254 0.573 0.189348
858 3 0.2645 0.61425 0.217534
859 4 0.24675 0.63825 0.212753
860 4 0.22825 0.6605 0.21809
862 5 0.2985 0.607 0.21431
863 6 0.32425 0.62375 0.21481
864 7 0.2985 0.57925 0.210362
867 5 0.3335 0.59125 0.19891
868 6 0.31225 0.61275 0.197354
869 7 0.3615 0.58575 0.195519
870 3 0.36825 0.606 0.188793
653 4 0.292 0.40575 0.248721
651 3 0.281 0.46425 0.249166
655 5 0.2545 0.488 0.245664
656 6 0.2245 0.483 0.246664
657 7 0.2665 0.514 0.241717
659 4 0.2435 0.534 0.237825
660 5 0.22825 0.5175 0.231043
661 6 0.2375 0.48925 0.229097
662 7 0.2065 0.53525 0.227318
663 3 0.1905 0.521 0.220592
664 4 0.1615 0.54625 0.219535
666 4 0.19675 0.569 0.229042
652 4 0.2895 0.43575 0.243829
658 2 0.291 0.51875 0.24155
1043 5 0.36675 0.5275 0.246331
1044 6 0.33625 0.52375 0.245997
1045 7 0.38325 0.5395 0.240716
1046 3 0.36675 0.5495 0.233878
1047 4 0.39475 0.56125 0.228486
1048 4 0.426 0.56025 0.232766
1049 4 0.41925 0.5445 0.240216
1050 5 0.3515 0.5195 0.230487
1051 6 0.361 0.48975 0.230987
1052 7 0.32275 0.52575 0.226262
1053 2 0.31275 0.54875 0.226206
1054 4 0.3075 0.49875 0.221815
665 4 0.1745 0.578 0.222315
848 5 0.27875 0.6055 0.247054
849 6 0.24925 0.6045 0.245052
857 7 0.26975 0.6345 0.224483
861 4 0.25525 0.6675 0.224149
850 7 0.30125 0.624 0.243384
851 3 0.2915 0.643 0.23688
852 4 0.32125 0.667 0.235879
853 4 0.3505 0.64725 0.238937
854 4 0.3375 0.62775 0.245219
855 5 0.28675 0.621 0.230042
856 6 0.298 0.59325 0.230098
654 4 0.271 0.41325 0.255726
641 5 0.2725 0.47675 0.27863
643 7 0.24425 0.47075 0.274961
644 3 0.24625 0.449 0.268346
645 4 0.20975 0.4415 0.267011
646 4 0.19125 0.4725 0.269847
647 4 0.21125 0.48325 0.276518
648 5 0.26025 0.467 0.261674
649 6 0.26275 0.498 0.26123
650 7 0.26975 0.449 0.256171
839 3 0.21675 0.5645 0.264843
840 4 0.1865 0.56225 0.259395
841 4 0.1565 0.563 0.264176
845 7 0.266 0.5695 0.257338
846 2 0.26475 0.5445 0.256893
642 6 0.29975 0.46575 0.276684
1032 6 0.3705 0.57 0.278575
1033 7 0.32225 0.55925 0.27346
1034 2 0.29875 0.567 0.272737
1035 4 0.3325 0.5295 0.269847
1036 5 0.3545 0.5375 0.26312
1037 6 0.3595 0.56675 0.261341
1038 7 0.3665 0.51075 0.259562
1039 3 0.38725 0.51625 0.253113
1040 4 0.40025 0.48075 0.251723
1041 4 0.3765 0.456 0.255115
1042 4 0.36175 0.4755 0.261396
836 5 0.22025 0.58425 0.277185
837 6 0.25025 0.577 0.277296
838 7 0.201 0.579 0.271292
842 4 0.165 0.58725 0.270402
843 5 0.243 0.58575 0.261341
844 6 0.243 0.61675 0.261952
847 4 0.29225 0.58725 0.253836
1027 3 0.32575 0.60875 0.281243
1028 4 0.32975 0.638 0.276073
1029 4 0.33925 0.666 0.280798
1031 5 0.342 0.5775 0.277796
640 4 0.26975 0.49925 0.285301
821 4 0.20975 0.47475 0.307928
824 5 0.22575 0.535 0.309373
825 6 0.20175 0.55475 0.310207
826 7 0.25275 0.54275 0.305259
827 2 0.27275 0.52775 0.305315
830 6 0.21525 0.5475 0.292417
629 5 0.32975 0.47325 0.309206
630 6 0.30675 0.4945 0.308928
631 7 0.351 0.469 0.303647
632 3 0.34725 0.48775 0.296753
633 4 0.37575 0.47475 0.291861
634 4 0.40075 0.46125 0.297476
635 4 0.38075 0.447 0.303536
636 5 0.313 0.481 0.293307
637 6 0.29925 0.453 0.294196
638 7 0.29975 0.5055 0.28936
639 2 0.3105 0.528 0.289193
1022 4 0.4095 0.56 0.301868
1023 4 0.387 0.5615 0.308372
1025 6 0.3315 0.57 0.293418
828 4 0.253 0.573 0.3007
829 5 0.22925 0.5725 0.294196
831 7 0.226 0.59975 0.29036
832 3 0.20425 0.6005 0.283911
833 4 0.19975 0.63825 0.282522
834 4 0.233 0.6515 0.284745
835 4 0.24225 0.6325 0.291694
1017 5 0.333 0.59125 0.310207
1018 6 0.312 0.613 0.308706
1019 7 0.3615 0.5855 0.306816
1020 3 0.3695 0.60475 0.300145
1021 4 0.40575 0.59525 0.298699
1024 5 0.34675 0.596 0.293418
1026 7 0.34425 0.6175 0.28797
1030 4 0.35725 0.6525 0.287358
626 4 0.31975 0.4165 0.314265
627 4 0.28575 0.41975 0.317378
810 5 0.2285 0.5175 0.342506
811 6 0.237 0.489 0.340394
812 7 0.2065 0.53525 0.338503
813 3 0.19075 0.52175 0.331944
814 4 0.162 0.54675 0.330609
816 4 0.197 0.57 0.340449
817 5 0.21525 0.52075 0.325439
818 6 0.2395 0.538 0.325161
819 7 0.207 0.501 0.319769
820 3 0.22675 0.501 0.312875
822 4 0.187 0.4565 0.31282
823 4 0.1785 0.47825 0.319324
1015 2 0.27825 0.5645 0.321437
614 4 0.3955 0.561 0.339726
617 5 0.35025 0.5195 0.341505
618 6 0.3615 0.49025 0.342284
619 7 0.32325 0.525 0.337225
620 2 0.3135 0.548 0.337002
621 4 0.3075 0.49775 0.333
622 5 0.329 0.4905 0.32644
623 6 0.35425 0.505 0.32455
624 7 0.317 0.46425 0.322437
625 3 0.335 0.451 0.3161
628 4 0.28625 0.445 0.323716
1016 4 0.327 0.56825 0.317045
815 4 0.17625 0.57875 0.333667
1007 7 0.269 0.634 0.335668
1008 3 0.264 0.61475 0.328942
1009 4 0.246 0.6385 0.32366
1010 4 0.22825 0.66125 0.329053
1011 4 0.2535 0.66775 0.335279
1005 5 0.286 0.621 0.341227
1006 6 0.2975 0.59275 0.341061
1012 5 0.29775 0.60675 0.325662
1013 6 0.32325 0.623 0.326106
1014 7 0.29875 0.579 0.321492
804 4 0.272 0.412 0.366911
803 4 0.293 0.40575 0.360129
798 5 0.26175 0.467 0.372693
799 6 0.26325 0.49825 0.372193
800 7 0.2715 0.4485 0.367134
801 3 0.283 0.4645 0.360351
805 5 0.25675 0.488 0.357016
806 6 0.2255 0.48275 0.357738
807 7 0.267 0.51325 0.352958
809 4 0.242 0.5335 0.349288
990 4 0.18725 0.5605 0.370358
995 7 0.2665 0.569 0.368468
996 2 0.2665 0.544 0.36819
603 5 0.3555 0.538 0.374138
604 6 0.35925 0.5665 0.372471
605 7 0.36725 0.5115 0.37058
606 3 0.38725 0.516 0.363965
607 4 0.401 0.48025 0.362853
608 4 0.37675 0.457 0.366355
609 4 0.363 0.47575 0.372582
610 5 0.367 0.52775 0.357405
611 6 0.337 0.52375 0.357183
612 7 0.384 0.5405 0.35179
613 3 0.367 0.54975 0.344952
615 4 0.4255 0.5595 0.344396
616 4 0.41975 0.54575 0.351679
802 4 0.2905 0.4355 0.355292
808 2 0.29125 0.5185 0.352402
993 5 0.2435 0.58425 0.372359
994 6 0.2425 0.61575 0.373082
998 5 0.27825 0.6065 0.357905
999 6 0.24875 0.60375 0.355904
997 4 0.291 0.587 0.364632
1000 7 0.302 0.625 0.354403
1001 3 0.291 0.64325 0.347954
1002 4 0.3215 0.665 0.347009
1003 4 0.3505 0.648 0.350233
1004 4 0.33675 0.6285 0.356126
790 4 0.2695 0.49875 0.396375
791 5 0.27325 0.4765 0.389704
793 7 0.2455 0.47075 0.386091
794 3 0.24725 0.449 0.379308
795 4 0.21125 0.44125 0.377974
796 4 0.191 0.46925 0.381199
797 4 0.2115 0.48225 0.387814
980 6 0.21375 0.54575 0.403658
989 3 0.21675 0.56275 0.375862
991 4 0.15725 0.56225 0.375083
592 6 0.331 0.56875 0.404492
599 6 0.371 0.56925 0.389593
600 7 0.32225 0.559 0.38459
601 2 0.2985 0.56575 0.383867
602 4 0.33475 0.52975 0.381032
783 4 0.3755 0.4745 0.402713
786 5 0.313 0.48075 0.404158
787 6 0.29925 0.45275 0.404881
788 7 0.29925 0.50525 0.400322
789 2 0.30975 0.528 0.400211
792 6 0.3 0.4655 0.387703
979 5 0.228 0.5715 0.405103
981 7 0.2265 0.59975 0.401379
982 3 0.204 0.6005 0.39493
983 4 0.19825 0.63825 0.393874
984 4 0.231 0.65175 0.395931
985 4 0.2435 0.63125 0.402602
986 5 0.221 0.584 0.388259
987 6 0.2505 0.5765 0.38837
988 7 0.20225 0.57775 0.382366
992 4 0.16525 0.58525 0.381643
591 5 0.346 0.595 0.404659
593 7 0.3435 0.6175 0.39871
594 3 0.3255 0.60775 0.392206
595 4 0.32725 0.63825 0.387203
596 4 0.341 0.66375 0.392095
597 4 0.35775 0.652 0.398655
598 5 0.34275 0.577 0.38887
777 4 0.2855 0.42175 0.428119
776 4 0.32 0.4165 0.42545
582 2 0.2795 0.5635 0.432566
778 4 0.28525 0.4435 0.434512
967 5 0.21475 0.52225 0.43618
968 6 0.24075 0.539 0.436458
969 7 0.2055 0.50275 0.430342
970 3 0.22725 0.5 0.423671
971 4 0.21075 0.47525 0.418334
972 4 0.18325 0.4595 0.422837
973 4 0.175 0.483 0.429008
974 5 0.227 0.534 0.420169
975 6 0.203 0.55425 0.421225
976 7 0.25375 0.543 0.415833
977 2 0.2735 0.528 0.415444
583 4 0.3275 0.568 0.427785
589 4 0.409 0.56325 0.413276
590 4 0.38575 0.562 0.419891
772 5 0.3285 0.489 0.436902
773 6 0.3565 0.504 0.435012
774 7 0.31675 0.4625 0.433122
775 3 0.33575 0.45 0.42684
779 5 0.33 0.473 0.420113
780 6 0.307 0.4935 0.420169
781 7 0.35125 0.4695 0.41461
782 3 0.34725 0.48775 0.407772
784 4 0.40175 0.4625 0.408328
785 4 0.381 0.44825 0.414499
576 4 0.242 0.63425 0.434512
978 4 0.253 0.57525 0.411719
579 5 0.2985 0.60725 0.436458
580 6 0.3255 0.62275 0.437069
581 7 0.2995 0.5785 0.432344
584 5 0.33125 0.592 0.42117
585 6 0.31025 0.6135 0.419557
586 7 0.36025 0.5855 0.417834
587 3 0.36725 0.60525 0.411274
588 4 0.4035 0.596 0.409884
952 4 0.283 0.4355 0.465644
955 5 0.254 0.48975 0.467756
956 6 0.22325 0.4865 0.468479
957 7 0.267 0.51525 0.463809
959 4 0.24425 0.5365 0.459695
960 5 0.229 0.5175 0.452802
961 6 0.23625 0.48875 0.450912
962 7 0.2075 0.53675 0.449077
963 3 0.1895 0.52375 0.442462
964 4 0.1645 0.55075 0.441072
760 5 0.3685 0.52625 0.467478
761 6 0.3385 0.52 0.467645
762 7 0.38775 0.5385 0.462308
763 3 0.36975 0.54825 0.45547
764 4 0.39725 0.55975 0.450189
765 4 0.4275 0.56375 0.45497
766 4 0.4235 0.54375 0.461919
767 5 0.35075 0.518 0.452357
768 6 0.361 0.4885 0.453525
769 7 0.322 0.5245 0.448243
770 2 0.312 0.54725 0.448632
771 4 0.30575 0.5 0.443407
958 2 0.2915 0.5195 0.463754
574 7 0.26875 0.6335 0.446575
575 3 0.26325 0.61375 0.439682
577 4 0.22725 0.661 0.439849
578 4 0.2505 0.666 0.446186
965 4 0.17675 0.5825 0.444519
966 4 0.2 0.5725 0.450967
565 1 0.30725 0.627 0.465143
567 2 0.289 0.6115 0.466811
568 3 0.296 0.6455 0.45825
569 4 0.3255 0.66975 0.456304
570 4 0.35475 0.649 0.458861
571 4 0.34475 0.62975 0.4662
572 5 0.288 0.62125 0.451912
573 6 0.29925 0.593 0.451634
953 4 0.278 0.4055 0.470425
954 4 0.272 0.41375 0.478374
941 1 0.2485 0.485 0.497054
943 2 0.27 0.49775 0.49761
944 3 0.2535 0.458 0.491661
945 4 0.219 0.44125 0.490938
946 4 0.20025 0.4515 0.497832
948 5 0.2635 0.47075 0.484045
949 6 0.26575 0.501 0.482877
950 7 0.2705 0.4505 0.478486
951 3 0.2795 0.46525 0.471259
753 1 0.36625 0.5175 0.480987
754 2 0.37975 0.512 0.48549
755 2 0.35575 0.54 0.481654
756 3 0.388 0.518 0.474261
757 4 0.401 0.48225 0.472926
758 4 0.37975 0.46475 0.478486
759 4 0.378 0.48775 0.485268
566 2 0.31225 0.6435 0.469202
942 2 0.242 0.47525 0.501946
947 4 0.2135 0.48475 0.500111
180 6 0.338 0.5675 0.524072
187 8 0.36725 0.55675 0.508283
188 8 0.32675 0.56625 0.501668
370 3 0.346 0.4855 0.52724
371 4 0.3755 0.471 0.522126
372 4 0.39925 0.4555 0.52763
374 5 0.31575 0.48475 0.521681
375 8 0.29575 0.46225 0.522181
376 8 0.317 0.506 0.515788
175 3 0.37675 0.59975 0.53052
176 4 0.412 0.587 0.528352
179 5 0.354 0.5945 0.523905
181 7 0.35125 0.61675 0.518401
182 3 0.3295 0.607 0.512008
183 4 0.32725 0.63875 0.507283
184 4 0.35275 0.66125 0.510173
185 4 0.366 0.649 0.517678
186 5 0.34425 0.5775 0.507672
365 4 0.28375 0.41575 0.547365
364 4 0.31775 0.411 0.544252
170 2 0.28025 0.5585 0.550478
366 4 0.2845 0.439 0.554092
551 3 0.18925 0.51975 0.561263
552 4 0.1615 0.54525 0.560096
555 5 0.21475 0.51725 0.554648
556 6 0.24 0.535 0.554703
557 7 0.20725 0.49525 0.549589
558 3 0.22675 0.49475 0.54264
559 4 0.207 0.4725 0.537469
560 4 0.18675 0.45025 0.542806
561 4 0.18025 0.4705 0.550256
562 5 0.231 0.5305 0.538637
563 8 0.2035 0.548 0.539582
564 8 0.24875 0.53125 0.532244
171 4 0.33125 0.562 0.546865
177 4 0.41175 0.553 0.531743
178 4 0.39075 0.5535 0.538859
360 5 0.328 0.4835 0.556204
361 6 0.35425 0.4985 0.554759
362 7 0.31575 0.457 0.552424
363 3 0.33425 0.444 0.545975
367 5 0.3295 0.4665 0.539415
368 6 0.30575 0.48625 0.539304
369 7 0.35075 0.465 0.534023
373 4 0.381 0.44425 0.534356
163 3 0.265 0.60925 0.558317
164 4 0.24675 0.63425 0.553369
165 4 0.231 0.6595 0.558372
167 5 0.2985 0.6005 0.554759
168 6 0.32375 0.61875 0.555648
169 7 0.30075 0.573 0.550812
172 5 0.33675 0.58425 0.540138
173 6 0.3145 0.60425 0.538303
174 7 0.36625 0.579 0.536858
541 4 0.2885 0.40125 0.589004
539 3 0.282 0.46225 0.589838
543 5 0.255 0.48325 0.586447
544 6 0.224 0.479 0.587002
545 7 0.26525 0.508 0.582777
547 4 0.245 0.5295 0.578219
548 5 0.228 0.51375 0.57177
549 6 0.23475 0.4845 0.570213
550 7 0.20575 0.533 0.56799
554 4 0.197 0.56625 0.570269
344 3 0.38825 0.5145 0.593396
345 4 0.40125 0.47975 0.592061
348 5 0.367 0.52375 0.586669
349 6 0.33625 0.5195 0.586669
350 7 0.384 0.53625 0.580998
351 3 0.36725 0.546 0.574105
352 4 0.39375 0.55725 0.568768
353 4 0.4245 0.56175 0.57316
354 4 0.41975 0.54425 0.580554
355 5 0.35125 0.51525 0.570658
356 6 0.36225 0.487 0.571659
357 7 0.32525 0.522 0.566767
358 2 0.31725 0.54575 0.566433
359 4 0.30725 0.49525 0.562708
540 4 0.28925 0.433 0.584668
546 2 0.28975 0.51325 0.583
153 5 0.2795 0.604 0.587614
154 6 0.25 0.6025 0.585279
162 7 0.269 0.629 0.565099
166 4 0.2515 0.66225 0.564932
553 4 0.17375 0.5765 0.564154
155 7 0.303 0.6225 0.584112
156 3 0.292 0.6405 0.577385
157 4 0.32175 0.6645 0.576384
158 4 0.35125 0.6465 0.580498
159 4 0.33825 0.6265 0.586891
160 5 0.2865 0.61775 0.570547
161 6 0.298 0.59025 0.570436
542 4 0.26825 0.409 0.595842
144 3 0.21625 0.562 0.605181
145 4 0.186 0.559 0.599844
146 4 0.156 0.562 0.604347
150 7 0.265 0.56825 0.598177
151 2 0.2635 0.5435 0.597787
529 5 0.27075 0.4745 0.619191
531 7 0.2435 0.46825 0.61541
532 3 0.245 0.44625 0.608795
533 4 0.2075 0.43925 0.607516
534 4 0.1905 0.469 0.610407
535 4 0.2115 0.48175 0.617078
536 5 0.2595 0.4635 0.602235
537 6 0.26225 0.4955 0.601846
538 7 0.26925 0.44525 0.596509
337 6 0.37125 0.5675 0.618968
338 7 0.3215 0.55825 0.613798
339 2 0.29775 0.5655 0.613242
340 4 0.3325 0.52875 0.610129
341 5 0.35525 0.53675 0.603458
342 6 0.36 0.5655 0.601734
343 7 0.36775 0.50975 0.5999
346 4 0.378 0.45475 0.595842
347 4 0.36225 0.475 0.602179
530 6 0.298 0.463 0.617134
137 3 0.20375 0.5975 0.624639
138 4 0.19725 0.63425 0.623416
141 5 0.2215 0.58175 0.617801
142 6 0.25125 0.5745 0.617912
143 7 0.202 0.57625 0.612019
147 4 0.166 0.58275 0.611018
148 5 0.24175 0.5855 0.602012
149 6 0.245 0.616 0.602457
152 4 0.2925 0.58675 0.594563
332 3 0.326 0.60525 0.62147
333 4 0.33 0.63675 0.616522
334 4 0.343 0.66375 0.621359
336 5 0.34175 0.57525 0.617801
514 4 0.319 0.4135 0.654881
125 3 0.22625 0.49775 0.653213
126 4 0.20775 0.47325 0.648377
127 4 0.1845 0.45325 0.653158
129 5 0.22475 0.532 0.649711
130 6 0.2025 0.552 0.6506
131 7 0.25125 0.539 0.645319
132 2 0.27 0.5225 0.644708
134 5 0.229 0.56975 0.63459
135 6 0.21475 0.5445 0.632922
528 4 0.268 0.497 0.625917
327 4 0.40925 0.55825 0.642262
328 4 0.3875 0.557 0.648877
330 6 0.3315 0.56625 0.633923
513 3 0.33425 0.4485 0.656104
517 5 0.3295 0.47 0.6496
518 6 0.3065 0.4905 0.649489
519 7 0.351 0.46675 0.643929
520 3 0.3465 0.485 0.637091
521 4 0.374 0.472 0.632088
522 4 0.4005 0.461 0.637814
523 4 0.381 0.44375 0.643651
524 5 0.3115 0.47675 0.6337
525 6 0.29775 0.45 0.634367
526 7 0.299 0.5015 0.629976
527 2 0.31075 0.52375 0.629976
133 4 0.25175 0.57175 0.641372
136 7 0.225 0.59825 0.630865
139 4 0.23 0.651 0.625139
140 4 0.24025 0.6305 0.632366
322 5 0.33325 0.5885 0.650823
323 6 0.3125 0.60875 0.648877
324 7 0.362 0.582 0.647209
325 3 0.3695 0.60275 0.640538
326 4 0.4055 0.592 0.639093
329 5 0.34725 0.59375 0.634089
331 7 0.34425 0.61425 0.628252
335 4 0.359 0.648 0.627863
515 4 0.286 0.41625 0.657605
115 5 0.22925 0.51475 0.682677
116 6 0.237 0.48575 0.680732
117 7 0.20625 0.533 0.678953
118 3 0.19075 0.519 0.672393
119 4 0.163 0.54475 0.670947
121 4 0.19725 0.56675 0.681065
122 5 0.21375 0.5175 0.665722
123 6 0.239 0.5355 0.665499
124 7 0.20625 0.49775 0.659884
128 4 0.17675 0.475 0.659662
320 2 0.27975 0.5585 0.661886
321 4 0.32925 0.56525 0.657605
501 3 0.367 0.5455 0.685012
502 4 0.3945 0.55825 0.679787
503 4 0.42575 0.55975 0.684123
505 5 0.35125 0.514 0.681843
506 6 0.36225 0.4865 0.682789
507 7 0.32375 0.522 0.677674
508 2 0.315 0.5455 0.677618
509 4 0.30725 0.496 0.673227
510 5 0.3285 0.486 0.666444
511 6 0.35425 0.50025 0.664832
512 7 0.316 0.4605 0.66272
516 4 0.2865 0.44 0.664276
120 4 0.175 0.57625 0.67445
312 7 0.27025 0.62975 0.676117
313 3 0.26525 0.61125 0.669057
314 4 0.24625 0.636 0.664221
315 4 0.2285 0.6565 0.669835
316 4 0.25325 0.6625 0.675728
307 4 0.32225 0.664 0.687125
310 5 0.28725 0.61725 0.681732
311 6 0.29825 0.58925 0.681732
317 5 0.29875 0.60275 0.665499
318 6 0.3235 0.62 0.666444
319 7 0.29925 0.57375 0.661775
109 4 0.269 0.4085 0.707138
108 4 0.29 0.401 0.700356
100 4 0.2075 0.44025 0.718701
103 5 0.25975 0.46375 0.713253
104 6 0.26275 0.4945 0.71292
105 7 0.26975 0.4435 0.707638
106 3 0.28125 0.46025 0.700912
110 5 0.25525 0.48375 0.697354
111 6 0.224 0.47875 0.698243
112 7 0.26575 0.509 0.693573
114 4 0.245 0.5305 0.689237
294 3 0.2165 0.5615 0.716422
295 4 0.187 0.5585 0.71103
296 4 0.155 0.561 0.715588
300 7 0.267 0.5665 0.708917
301 2 0.26625 0.5415 0.70825
107 4 0.28775 0.431 0.695519
113 2 0.29025 0.514 0.69374
491 5 0.35525 0.53425 0.714699
492 6 0.3595 0.5645 0.713309
493 7 0.3665 0.5075 0.711252
494 3 0.38775 0.51275 0.704692
495 4 0.40125 0.47725 0.703914
496 4 0.3755 0.4535 0.706749
497 4 0.3605 0.473 0.713087
498 5 0.36725 0.5235 0.697965
499 6 0.3365 0.519 0.69791
500 7 0.38325 0.53675 0.692184
504 4 0.41925 0.54425 0.69135
298 5 0.24475 0.582 0.712864
299 6 0.244 0.61325 0.713698
303 5 0.2805 0.603 0.698632
304 6 0.251 0.602 0.696631
302 4 0.29275 0.58625 0.705526
305 7 0.3025 0.621 0.694852
306 3 0.2925 0.64025 0.688348
308 4 0.35 0.647 0.690571
309 4 0.33775 0.6255 0.696965
95 4 0.26875 0.4965 0.736991
96 5 0.27275 0.47425 0.730265
98 7 0.2445 0.46725 0.726596
99 3 0.24475 0.44625 0.720036
101 4 0.19075 0.4685 0.721815
102 4 0.21175 0.48025 0.728097
284 5 0.22875 0.56875 0.745719
285 6 0.215 0.543 0.744052
87 3 0.3465 0.484 0.748443
88 4 0.37575 0.472 0.743496
89 4 0.40225 0.46025 0.748888
91 5 0.31225 0.476 0.745052
92 6 0.29775 0.44875 0.745775
93 7 0.299 0.5005 0.741161
94 2 0.3105 0.52275 0.74105
97 6 0.299 0.462 0.728319
480 6 0.33225 0.5655 0.745163
487 6 0.37125 0.566 0.730265
488 7 0.3215 0.55625 0.725206
489 2 0.29775 0.5635 0.724761
490 4 0.333 0.52625 0.721203
286 7 0.2255 0.597 0.74205
287 3 0.20375 0.597 0.735657
288 4 0.1985 0.63475 0.734267
289 4 0.23175 0.64975 0.736547
290 4 0.241 0.62875 0.743607
291 5 0.222 0.58 0.728986
292 6 0.252 0.57325 0.729042
293 7 0.20225 0.576 0.723204
297 4 0.166 0.581 0.722259
479 5 0.3465 0.5925 0.745163
481 7 0.344 0.61375 0.739437
482 3 0.32575 0.60525 0.732655
483 4 0.3295 0.6355 0.727652
484 4 0.341 0.66275 0.732433
485 4 0.35875 0.64775 0.738993
486 5 0.34275 0.57375 0.72932
81 4 0.321 0.41325 0.766233
82 4 0.28575 0.41725 0.769124
272 5 0.215 0.51725 0.776684
273 6 0.23925 0.535 0.776796
274 7 0.20575 0.4975 0.771125
275 3 0.22625 0.49725 0.764565
276 4 0.2095 0.47225 0.759395
277 4 0.1855 0.45425 0.764398
278 4 0.17675 0.475 0.771014
279 5 0.2255 0.532 0.760785
280 6 0.20175 0.55125 0.76173
281 7 0.253 0.53875 0.756782
282 2 0.27275 0.52325 0.756616
283 4 0.25125 0.5705 0.752668
470 2 0.2795 0.5575 0.773127
77 5 0.328 0.486 0.777741
78 6 0.355 0.49975 0.77624
79 7 0.31675 0.4595 0.773849
80 3 0.3355 0.4485 0.767456
83 4 0.286 0.44025 0.775739
84 5 0.32975 0.47 0.760896
85 6 0.307 0.49025 0.760674
86 7 0.3515 0.4655 0.755337
90 4 0.382 0.4435 0.754725
471 4 0.329 0.5655 0.768735
477 4 0.40875 0.559 0.753391
478 4 0.38825 0.5565 0.760229
463 3 0.266 0.61075 0.780409
464 4 0.24475 0.6355 0.775517
465 4 0.2285 0.6565 0.781243
467 5 0.29825 0.60175 0.776907
468 6 0.3235 0.62025 0.777574
469 7 0.299 0.57325 0.773071
472 5 0.33375 0.58825 0.761952
473 6 0.31275 0.609 0.760062
474 7 0.36225 0.58225 0.758339
475 3 0.369 0.60225 0.751723
476 4 0.4065 0.59275 0.750334
258 4 0.29075 0.40075 0.811763
256 3 0.282 0.46075 0.812041
260 5 0.25575 0.483 0.80865
261 6 0.2245 0.47875 0.809317
262 7 0.26625 0.50975 0.804926
264 4 0.24475 0.53075 0.800589
265 5 0.22925 0.514 0.794085
266 6 0.2365 0.4845 0.792084
267 7 0.207 0.532 0.790305
268 3 0.1915 0.519 0.783745
269 4 0.16325 0.54525 0.782299
271 4 0.19625 0.56525 0.792084
65 5 0.366 0.524 0.809095
66 6 0.33625 0.51925 0.808984
67 7 0.3835 0.537 0.80348
68 3 0.36725 0.546 0.796642
69 4 0.39425 0.55775 0.791139
70 4 0.42475 0.561 0.795864
71 4 0.4195 0.5435 0.803091
72 5 0.3505 0.5155 0.793307
73 6 0.36275 0.487 0.794141
74 7 0.323 0.52225 0.78897
75 2 0.31375 0.5455 0.788915
76 4 0.30675 0.4965 0.784412
257 4 0.289 0.43125 0.806871
263 2 0.2905 0.51525 0.805203
270 4 0.17575 0.57475 0.78569
453 5 0.28 0.60325 0.809762
454 6 0.25075 0.601 0.807705
462 7 0.2705 0.6295 0.787581
466 4 0.25375 0.6625 0.78708
455 7 0.3025 0.621 0.80626
456 3 0.2915 0.63925 0.799755
457 4 0.32125 0.6625 0.798477
458 4 0.351 0.645 0.801924
459 4 0.33675 0.62475 0.808317
460 5 0.2875 0.61625 0.793084
461 6 0.29825 0.58875 0.793084
259 4 0.27 0.4085 0.81849
246 5 0.27275 0.47425 0.841561
248 7 0.244 0.468 0.837781
249 3 0.2445 0.4475 0.831221
250 4 0.20725 0.441 0.829386
251 4 0.18925 0.468 0.833222
252 4 0.21075 0.48075 0.839615
253 5 0.26025 0.46425 0.824383
254 6 0.26275 0.495 0.824049
255 7 0.27025 0.4445 0.818768
444 3 0.21675 0.561 0.827552
445 4 0.1875 0.55825 0.822326
446 4 0.15575 0.5605 0.826885
450 7 0.26625 0.56625 0.820047
451 2 0.2645 0.5415 0.819268
54 6 0.37175 0.5675 0.841672
55 7 0.32225 0.55575 0.836335
56 2 0.2985 0.563 0.835724
57 4 0.334 0.52625 0.832777
58 5 0.35475 0.535 0.825995
59 6 0.35925 0.56525 0.824216
60 7 0.366 0.509 0.822493
61 3 0.38725 0.51275 0.815766
62 4 0.40225 0.47775 0.814932
63 4 0.377 0.45275 0.818268
64 4 0.361 0.47275 0.824272
247 6 0.299 0.46275 0.839504
441 5 0.2215 0.5805 0.840282
442 6 0.25125 0.57375 0.840282
443 7 0.20175 0.57525 0.834334
447 4 0.166 0.58175 0.833611
448 5 0.2435 0.5825 0.824105
449 6 0.2435 0.61325 0.825106
50 4 0.32925 0.63625 0.838948
53 5 0.343 0.5735 0.84056
452 4 0.29325 0.58525 0.816711
245 4 0.26875 0.4955 0.848288
426 4 0.207 0.4725 0.87097
429 5 0.22625 0.5315 0.872193
430 6 0.2015 0.55175 0.873082
431 7 0.25275 0.5395 0.868023
432 2 0.273 0.52475 0.867912
433 4 0.2515 0.57025 0.863798
434 5 0.2285 0.568 0.857127
435 6 0.215 0.542 0.855459
44 4 0.40825 0.562 0.864576
45 4 0.38725 0.55875 0.871303
47 6 0.332 0.56625 0.856182
234 5 0.3295 0.47075 0.872026
235 6 0.30675 0.49075 0.871803
236 7 0.35125 0.46675 0.866355
237 3 0.3465 0.48575 0.859462
238 4 0.3755 0.4735 0.854792
239 4 0.4005 0.4605 0.86024
240 4 0.38125 0.444 0.866022
241 5 0.3125 0.477 0.856126
242 6 0.2985 0.449 0.85696
243 7 0.29875 0.5015 0.852402
244 2 0.30925 0.52425 0.852457
436 7 0.226 0.59625 0.853235
437 3 0.204 0.597 0.846676
438 4 0.19975 0.63425 0.845564
439 4 0.231 0.65025 0.847732
440 4 0.242 0.62725 0.854514
39 5 0.33325 0.5895 0.873249
40 6 0.31175 0.60975 0.871303
41 7 0.36175 0.58325 0.86958
42 3 0.368 0.60325 0.862853
43 4 0.405 0.59525 0.861352
46 5 0.346 0.59375 0.856237
48 7 0.3435 0.61525 0.850567
49 3 0.3265 0.605 0.844118
51 4 0.34 0.6625 0.843952
52 4 0.35775 0.64925 0.850345
231 4 0.32075 0.4135 0.877529
232 4 0.2865 0.4175 0.880198
37 2 0.28 0.55975 0.884201
415 5 0.2295 0.51475 0.905048
416 6 0.237 0.48575 0.903269
417 7 0.20675 0.5335 0.901434
418 3 0.1905 0.5195 0.894596
419 4 0.163 0.5455 0.893707
421 4 0.196 0.5665 0.903658
422 5 0.21425 0.5185 0.888203
423 6 0.23875 0.53525 0.888092
424 7 0.2055 0.499 0.882533
425 3 0.226 0.4975 0.875751
427 4 0.182 0.45725 0.875473
428 4 0.17575 0.4785 0.882144
38 4 0.32875 0.566 0.879976
219 4 0.39275 0.55775 0.902546